# vtk DataFile Version 2.0
Generated volume Mesh
ASCII
DATASET UNSTRUCTURED_GRID
POINTS 341 float
0.150000 0.030000 0.000000
0.150000 0.000000 0.000000
0.150000 0.003000 0.000000
0.150000 0.006000 0.000000
0.150000 0.009000 0.000000
0.150000 0.012000 0.000000
0.150000 0.015000 0.000000
0.150000 0.018000 0.000000
0.150000 0.021000 0.000000
0.150000 0.024000 0.000000
0.150000 0.027000 0.000000
0.000000 0.000000 0.000000
0.000000 0.030000 0.000000
0.000000 0.027000 0.000000
0.000000 0.024000 0.000000
0.000000 0.021000 0.000000
0.000000 0.018000 0.000000
0.000000 0.015000 0.000000
0.000000 0.012000 0.000000
0.000000 0.009000 0.000000
0.000000 0.006000 0.000000
0.000000 0.003000 0.000000
0.005000 0.000000 0.000000
0.010000 0.000000 0.000000
0.015000 0.000000 0.000000
0.020000 0.000000 0.000000
0.025000 0.000000 0.000000
0.030000 0.000000 0.000000
0.035000 0.000000 0.000000
0.040000 0.000000 0.000000
0.045000 0.000000 0.000000
0.050000 0.000000 0.000000
0.055000 0.000000 0.000000
0.060000 0.000000 0.000000
0.065000 0.000000 0.000000
0.070000 0.000000 0.000000
0.075000 0.000000 0.000000
0.080000 0.000000 0.000000
0.085000 0.000000 0.000000
0.090000 0.000000 0.000000
0.095000 0.000000 0.000000
0.100000 0.000000 0.000000
0.105000 0.000000 0.000000
0.110000 0.000000 0.000000
0.115000 0.000000 0.000000
0.120000 0.000000 0.000000
0.125000 0.000000 0.000000
0.130000 0.000000 0.000000
0.135000 0.000000 0.000000
0.140000 0.000000 0.000000
0.145000 0.000000 0.000000
0.145000 0.030000 0.000000
0.140000 0.030000 0.000000
0.135000 0.030000 0.000000
0.130000 0.030000 0.000000
0.125000 0.030000 0.000000
0.120000 0.030000 0.000000
0.115000 0.030000 0.000000
0.110000 0.030000 0.000000
0.105000 0.030000 0.000000
0.100000 0.030000 0.000000
0.095000 0.030000 0.000000
0.090000 0.030000 0.000000
0.085000 0.030000 0.000000
0.080000 0.030000 0.000000
0.075000 0.030000 0.000000
0.070000 0.030000 0.000000
0.065000 0.030000 0.000000
0.060000 0.030000 0.000000
0.055000 0.030000 0.000000
0.050000 0.030000 0.000000
0.045000 0.030000 0.000000
0.040000 0.030000 0.000000
0.035000 0.030000 0.000000
0.030000 0.030000 0.000000
0.025000 0.030000 0.000000
0.020000 0.030000 0.000000
0.015000 0.030000 0.000000
0.010000 0.030000 0.000000
0.005000 0.030000 0.000000
0.005000 0.027000 0.000000
0.010000 0.027000 0.000000
0.015000 0.027000 0.000000
0.020000 0.027000 0.000000
0.025000 0.027000 0.000000
0.030000 0.027000 0.000000
0.035000 0.027000 0.000000
0.040000 0.027000 0.000000
0.045000 0.027000 0.000000
0.050000 0.027000 0.000000
0.055000 0.027000 0.000000
0.060000 0.027000 0.000000
0.065000 0.027000 0.000000
0.070000 0.027000 0.000000
0.075000 0.027000 0.000000
0.080000 0.027000 0.000000
0.085000 0.027000 0.000000
0.090000 0.027000 0.000000
0.095000 0.027000 0.000000
0.100000 0.027000 0.000000
0.105000 0.027000 0.000000
0.110000 0.027000 0.000000
0.115000 0.027000 0.000000
0.120000 0.027000 0.000000
0.125000 0.027000 0.000000
0.130000 0.027000 0.000000
0.135000 0.027000 0.000000
0.140000 0.027000 0.000000
0.145000 0.027000 0.000000
0.005000 0.024000 0.000000
0.010000 0.024000 0.000000
0.015000 0.024000 0.000000
0.020000 0.024000 0.000000
0.025000 0.024000 0.000000
0.030000 0.024000 0.000000
0.035000 0.024000 0.000000
0.040000 0.024000 0.000000
0.045000 0.024000 0.000000
0.050000 0.024000 0.000000
0.055000 0.024000 0.000000
0.060000 0.024000 0.000000
0.065000 0.024000 0.000000
0.070000 0.024000 0.000000
0.075000 0.024000 0.000000
0.080000 0.024000 0.000000
0.085000 0.024000 0.000000
0.090000 0.024000 0.000000
0.095000 0.024000 0.000000
0.100000 0.024000 0.000000
0.105000 0.024000 0.000000
0.110000 0.024000 0.000000
0.115000 0.024000 0.000000
0.120000 0.024000 0.000000
0.125000 0.024000 0.000000
0.130000 0.024000 0.000000
0.135000 0.024000 0.000000
0.140000 0.024000 0.000000
0.145000 0.024000 0.000000
0.005000 0.021000 0.000000
0.010000 0.021000 0.000000
0.015000 0.021000 0.000000
0.020000 0.021000 0.000000
0.025000 0.021000 0.000000
0.030000 0.021000 0.000000
0.035000 0.021000 0.000000
0.040000 0.021000 0.000000
0.045000 0.021000 0.000000
0.050000 0.021000 0.000000
0.055000 0.021000 0.000000
0.060000 0.021000 0.000000
0.065000 0.021000 0.000000
0.070000 0.021000 0.000000
0.075000 0.021000 0.000000
0.080000 0.021000 0.000000
0.085000 0.021000 0.000000
0.090000 0.021000 0.000000
0.095000 0.021000 0.000000
0.100000 0.021000 0.000000
0.105000 0.021000 0.000000
0.110000 0.021000 0.000000
0.115000 0.021000 0.000000
0.120000 0.021000 0.000000
0.125000 0.021000 0.000000
0.130000 0.021000 0.000000
0.135000 0.021000 0.000000
0.140000 0.021000 0.000000
0.145000 0.021000 0.000000
0.005000 0.018000 0.000000
0.010000 0.018000 0.000000
0.015000 0.018000 0.000000
0.020000 0.018000 0.000000
0.025000 0.018000 0.000000
0.030000 0.018000 0.000000
0.035000 0.018000 0.000000
0.040000 0.018000 0.000000
0.045000 0.018000 0.000000
0.050000 0.018000 0.000000
0.055000 0.018000 0.000000
0.060000 0.018000 0.000000
0.065000 0.018000 0.000000
0.070000 0.018000 0.000000
0.075000 0.018000 0.000000
0.080000 0.018000 0.000000
0.085000 0.018000 0.000000
0.090000 0.018000 0.000000
0.095000 0.018000 0.000000
0.100000 0.018000 0.000000
0.105000 0.018000 0.000000
0.110000 0.018000 0.000000
0.115000 0.018000 0.000000
0.120000 0.018000 0.000000
0.125000 0.018000 0.000000
0.130000 0.018000 0.000000
0.135000 0.018000 0.000000
0.140000 0.018000 0.000000
0.145000 0.018000 0.000000
0.005000 0.015000 0.000000
0.010000 0.015000 0.000000
0.015000 0.015000 0.000000
0.020000 0.015000 0.000000
0.025000 0.015000 0.000000
0.030000 0.015000 0.000000
0.035000 0.015000 0.000000
0.040000 0.015000 0.000000
0.045000 0.015000 0.000000
0.050000 0.015000 0.000000
0.055000 0.015000 0.000000
0.060000 0.015000 0.000000
0.065000 0.015000 0.000000
0.070000 0.015000 0.000000
0.075000 0.015000 0.000000
0.080000 0.015000 0.000000
0.085000 0.015000 0.000000
0.090000 0.015000 0.000000
0.095000 0.015000 0.000000
0.100000 0.015000 0.000000
0.105000 0.015000 0.000000
0.110000 0.015000 0.000000
0.115000 0.015000 0.000000
0.120000 0.015000 0.000000
0.125000 0.015000 0.000000
0.130000 0.015000 0.000000
0.135000 0.015000 0.000000
0.140000 0.015000 0.000000
0.145000 0.015000 0.000000
0.005000 0.012000 0.000000
0.010000 0.012000 0.000000
0.015000 0.012000 0.000000
0.020000 0.012000 0.000000
0.025000 0.012000 0.000000
0.030000 0.012000 0.000000
0.035000 0.012000 0.000000
0.040000 0.012000 0.000000
0.045000 0.012000 0.000000
0.050000 0.012000 0.000000
0.055000 0.012000 0.000000
0.060000 0.012000 0.000000
0.065000 0.012000 0.000000
0.070000 0.012000 0.000000
0.075000 0.012000 0.000000
0.080000 0.012000 0.000000
0.085000 0.012000 0.000000
0.090000 0.012000 0.000000
0.095000 0.012000 0.000000
0.100000 0.012000 0.000000
0.105000 0.012000 0.000000
0.110000 0.012000 0.000000
0.115000 0.012000 0.000000
0.120000 0.012000 0.000000
0.125000 0.012000 0.000000
0.130000 0.012000 0.000000
0.135000 0.012000 0.000000
0.140000 0.012000 0.000000
0.145000 0.012000 0.000000
0.005000 0.009000 0.000000
0.010000 0.009000 0.000000
0.015000 0.009000 0.000000
0.020000 0.009000 0.000000
0.025000 0.009000 0.000000
0.030000 0.009000 0.000000
0.035000 0.009000 0.000000
0.040000 0.009000 0.000000
0.045000 0.009000 0.000000
0.050000 0.009000 0.000000
0.055000 0.009000 0.000000
0.060000 0.009000 0.000000
0.065000 0.009000 0.000000
0.070000 0.009000 0.000000
0.075000 0.009000 0.000000
0.080000 0.009000 0.000000
0.085000 0.009000 0.000000
0.090000 0.009000 0.000000
0.095000 0.009000 0.000000
0.100000 0.009000 0.000000
0.105000 0.009000 0.000000
0.110000 0.009000 0.000000
0.115000 0.009000 0.000000
0.120000 0.009000 0.000000
0.125000 0.009000 0.000000
0.130000 0.009000 0.000000
0.135000 0.009000 0.000000
0.140000 0.009000 0.000000
0.145000 0.009000 0.000000
0.005000 0.006000 0.000000
0.010000 0.006000 0.000000
0.015000 0.006000 0.000000
0.020000 0.006000 0.000000
0.025000 0.006000 0.000000
0.030000 0.006000 0.000000
0.035000 0.006000 0.000000
0.040000 0.006000 0.000000
0.045000 0.006000 0.000000
0.050000 0.006000 0.000000
0.055000 0.006000 0.000000
0.060000 0.006000 0.000000
0.065000 0.006000 0.000000
0.070000 0.006000 0.000000
0.075000 0.006000 0.000000
0.080000 0.006000 0.000000
0.085000 0.006000 0.000000
0.090000 0.006000 0.000000
0.095000 0.006000 0.000000
0.100000 0.006000 0.000000
0.105000 0.006000 0.000000
0.110000 0.006000 0.000000
0.115000 0.006000 0.000000
0.120000 0.006000 0.000000
0.125000 0.006000 0.000000
0.130000 0.006000 0.000000
0.135000 0.006000 0.000000
0.140000 0.006000 0.000000
0.145000 0.006000 0.000000
0.005000 0.003000 0.000000
0.010000 0.003000 0.000000
0.015000 0.003000 0.000000
0.020000 0.003000 0.000000
0.025000 0.003000 0.000000
0.030000 0.003000 0.000000
0.035000 0.003000 0.000000
0.040000 0.003000 0.000000
0.045000 0.003000 0.000000
0.050000 0.003000 0.000000
0.055000 0.003000 0.000000
0.060000 0.003000 0.000000
0.065000 0.003000 0.000000
0.070000 0.003000 0.000000
0.075000 0.003000 0.000000
0.080000 0.003000 0.000000
0.085000 0.003000 0.000000
0.090000 0.003000 0.000000
0.095000 0.003000 0.000000
0.100000 0.003000 0.000000
0.105000 0.003000 0.000000
0.110000 0.003000 0.000000
0.115000 0.003000 0.000000
0.120000 0.003000 0.000000
0.125000 0.003000 0.000000
0.130000 0.003000 0.000000
0.135000 0.003000 0.000000
0.140000 0.003000 0.000000
0.145000 0.003000 0.000000
CELLS 300 1500
4 12 13 80 79
4 79 80 81 78
4 78 81 82 77
4 77 82 83 76
4 76 83 84 75
4 75 84 85 74
4 74 85 86 73
4 73 86 87 72
4 72 87 88 71
4 71 88 89 70
4 70 89 90 69
4 69 90 91 68
4 68 91 92 67
4 67 92 93 66
4 66 93 94 65
4 65 94 95 64
4 64 95 96 63
4 63 96 97 62
4 62 97 98 61
4 61 98 99 60
4 60 99 100 59
4 59 100 101 58
4 58 101 102 57
4 57 102 103 56
4 56 103 104 55
4 55 104 105 54
4 54 105 106 53
4 53 106 107 52
4 52 107 108 51
4 51 108 10 0
4 13 14 109 80
4 80 109 110 81
4 81 110 111 82
4 82 111 112 83
4 83 112 113 84
4 84 113 114 85
4 85 114 115 86
4 86 115 116 87
4 87 116 117 88
4 88 117 118 89
4 89 118 119 90
4 90 119 120 91
4 91 120 121 92
4 92 121 122 93
4 93 122 123 94
4 94 123 124 95
4 95 124 125 96
4 96 125 126 97
4 97 126 127 98
4 98 127 128 99
4 99 128 129 100
4 100 129 130 101
4 101 130 131 102
4 102 131 132 103
4 103 132 133 104
4 104 133 134 105
4 105 134 135 106
4 106 135 136 107
4 107 136 137 108
4 108 137 9 10
4 14 15 138 109
4 109 138 139 110
4 110 139 140 111
4 111 140 141 112
4 112 141 142 113
4 113 142 143 114
4 114 143 144 115
4 115 144 145 116
4 116 145 146 117
4 117 146 147 118
4 118 147 148 119
4 119 148 149 120
4 120 149 150 121
4 121 150 151 122
4 122 151 152 123
4 123 152 153 124
4 124 153 154 125
4 125 154 155 126
4 126 155 156 127
4 127 156 157 128
4 128 157 158 129
4 129 158 159 130
4 130 159 160 131
4 131 160 161 132
4 132 161 162 133
4 133 162 163 134
4 134 163 164 135
4 135 164 165 136
4 136 165 166 137
4 137 166 8 9
4 15 16 167 138
4 138 167 168 139
4 139 168 169 140
4 140 169 170 141
4 141 170 171 142
4 142 171 172 143
4 143 172 173 144
4 144 173 174 145
4 145 174 175 146
4 146 175 176 147
4 147 176 177 148
4 148 177 178 149
4 149 178 179 150
4 150 179 180 151
4 151 180 181 152
4 152 181 182 153
4 153 182 183 154
4 154 183 184 155
4 155 184 185 156
4 156 185 186 157
4 157 186 187 158
4 158 187 188 159
4 159 188 189 160
4 160 189 190 161
4 161 190 191 162
4 162 191 192 163
4 163 192 193 164
4 164 193 194 165
4 165 194 195 166
4 166 195 7 8
4 16 17 196 167
4 167 196 197 168
4 168 197 198 169
4 169 198 199 170
4 170 199 200 171
4 171 200 201 172
4 172 201 202 173
4 173 202 203 174
4 174 203 204 175
4 175 204 205 176
4 176 205 206 177
4 177 206 207 178
4 178 207 208 179
4 179 208 209 180
4 180 209 210 181
4 181 210 211 182
4 182 211 212 183
4 183 212 213 184
4 184 213 214 185
4 185 214 215 186
4 186 215 216 187
4 187 216 217 188
4 188 217 218 189
4 189 218 219 190
4 190 219 220 191
4 191 220 221 192
4 192 221 222 193
4 193 222 223 194
4 194 223 224 195
4 195 224 6 7
4 17 18 225 196
4 196 225 226 197
4 197 226 227 198
4 198 227 228 199
4 199 228 229 200
4 200 229 230 201
4 201 230 231 202
4 202 231 232 203
4 203 232 233 204
4 204 233 234 205
4 205 234 235 206
4 206 235 236 207
4 207 236 237 208
4 208 237 238 209
4 209 238 239 210
4 210 239 240 211
4 211 240 241 212
4 212 241 242 213
4 213 242 243 214
4 214 243 244 215
4 215 244 245 216
4 216 245 246 217
4 217 246 247 218
4 218 247 248 219
4 219 248 249 220
4 220 249 250 221
4 221 250 251 222
4 222 251 252 223
4 223 252 253 224
4 224 253 5 6
4 18 19 254 225
4 225 254 255 226
4 226 255 256 227
4 227 256 257 228
4 228 257 258 229
4 229 258 259 230
4 230 259 260 231
4 231 260 261 232
4 232 261 262 233
4 233 262 263 234
4 234 263 264 235
4 235 264 265 236
4 236 265 266 237
4 237 266 267 238
4 238 267 268 239
4 239 268 269 240
4 240 269 270 241
4 241 270 271 242
4 242 271 272 243
4 243 272 273 244
4 244 273 274 245
4 245 274 275 246
4 246 275 276 247
4 247 276 277 248
4 248 277 278 249
4 249 278 279 250
4 250 279 280 251
4 251 280 281 252
4 252 281 282 253
4 253 282 4 5
4 19 20 283 254
4 254 283 284 255
4 255 284 285 256
4 256 285 286 257
4 257 286 287 258
4 258 287 288 259
4 259 288 289 260
4 260 289 290 261
4 261 290 291 262
4 262 291 292 263
4 263 292 293 264
4 264 293 294 265
4 265 294 295 266
4 266 295 296 267
4 267 296 297 268
4 268 297 298 269
4 269 298 299 270
4 270 299 300 271
4 271 300 301 272
4 272 301 302 273
4 273 302 303 274
4 274 303 304 275
4 275 304 305 276
4 276 305 306 277
4 277 306 307 278
4 278 307 308 279
4 279 308 309 280
4 280 309 310 281
4 281 310 311 282
4 282 311 3 4
4 20 21 312 283
4 283 312 313 284
4 284 313 314 285
4 285 314 315 286
4 286 315 316 287
4 287 316 317 288
4 288 317 318 289
4 289 318 319 290
4 290 319 320 291
4 291 320 321 292
4 292 321 322 293
4 293 322 323 294
4 294 323 324 295
4 295 324 325 296
4 296 325 326 297
4 297 326 327 298
4 298 327 328 299
4 299 328 329 300
4 300 329 330 301
4 301 330 331 302
4 302 331 332 303
4 303 332 333 304
4 304 333 334 305
4 305 334 335 306
4 306 335 336 307
4 307 336 337 308
4 308 337 338 309
4 309 338 339 310
4 310 339 340 311
4 311 340 2 3
4 21 11 22 312
4 312 22 23 313
4 313 23 24 314
4 314 24 25 315
4 315 25 26 316
4 316 26 27 317
4 317 27 28 318
4 318 28 29 319
4 319 29 30 320
4 320 30 31 321
4 321 31 32 322
4 322 32 33 323
4 323 33 34 324
4 324 34 35 325
4 325 35 36 326
4 326 36 37 327
4 327 37 38 328
4 328 38 39 329
4 329 39 40 330
4 330 40 41 331
4 331 41 42 332
4 332 42 43 333
4 333 43 44 334
4 334 44 45 335
4 335 45 46 336
4 336 46 47 337
4 337 47 48 338
4 338 48 49 339
4 339 49 50 340
4 340 50 1 2
CELL_TYPES 300
9
9
9
9
9
9
9
9
9
9
9
9
9
9
9
9
9
9
9
9
9
9
9
9
9
9
9
9
9
9
9
9
9
9
9
9
9
9
9
9
9
9
9
9
9
9
9
9
9
9
9
9
9
9
9
9
9
9
9
9
9
9
9
9
9
9
9
9
9
9
9
9
9
9
9
9
9
9
9
9
9
9
9
9
9
9
9
9
9
9
9
9
9
9
9
9
9
9
9
9
9
9
9
9
9
9
9
9
9
9
9
9
9
9
9
9
9
9
9
9
9
9
9
9
9
9
9
9
9
9
9
9
9
9
9
9
9
9
9
9
9
9
9
9
9
9
9
9
9
9
9
9
9
9
9
9
9
9
9
9
9
9
9
9
9
9
9
9
9
9
9
9
9
9
9
9
9
9
9
9
9
9
9
9
9
9
9
9
9
9
9
9
9
9
9
9
9
9
9
9
9
9
9
9
9
9
9
9
9
9
9
9
9
9
9
9
9
9
9
9
9
9
9
9
9
9
9
9
9
9
9
9
9
9
9
9
9
9
9
9
9
9
9
9
9
9
9
9
9
9
9
9
9
9
9
9
9
9
9
9
9
9
9
9
9
9
9
9
9
9
9
9
9
9
9
9
9
9
9
9
9
9
9
9
9
9
9
9
9
9
9
9
9
9
9
9
9
9
9
9
POINT_DATA 341
SCALARS u1 float
LOOKUP_TABLE default
5.999809
2.968379
3.600540
3.963871
4.256244
4.516096
4.761067
5.000414
5.240701
5.486641
5.740584
-0.000000
2.963191
3.013830
3.070504
3.128377
3.175974
3.199457
3.176312
3.083541
2.806611
2.364875
2.330098
2.965803
3.457303
3.816104
4.111941
4.359035
4.565052
4.732031
4.860830
4.952139
5.007091
5.027374
5.015224
4.973362
4.904922
4.813388
4.702530
4.576345
4.438990
4.294713
4.147775
4.002330
3.862228
3.730778
3.609893
3.500554
3.395329
3.298967
3.112284
5.996248
5.974166
5.916642
5.818994
5.685135
5.521391
5.333791
5.127484
4.907020
4.676709
4.440821
4.203643
3.969454
3.742467
3.526761
3.326210
3.144432
2.984742
2.850130
2.743261
2.666486
2.621820
2.610768
2.633659
2.688067
2.766040
2.851420
2.920998
2.955915
3.005424
2.979132
2.937476
2.890921
2.852387
2.831669
2.834098
2.861688
2.914518
2.991677
3.091718
3.212840
3.352950
3.509677
3.680392
3.862228
4.052117
4.246834
4.443046
4.637363
4.826377
5.006683
5.174856
5.327357
5.460416
5.570023
5.652464
5.706004
5.733058
3.064837
3.047914
3.025465
3.007509
3.001244
3.010536
3.037037
3.081209
3.142891
3.221450
3.315903
3.424969
3.547119
3.680595
3.823438
3.973507
4.128513
4.286048
4.443624
4.598708
4.748759
4.891256
5.023722
5.143751
5.249011
5.337208
5.406088
5.453729
5.479339
3.124300
3.114544
3.108020
3.114913
3.138002
3.175572
3.225305
3.285944
3.356815
3.437430
3.527163
3.625219
3.730608
3.842173
3.958606
4.078474
4.200244
4.322303
4.442982
4.560586
4.673426
4.779858
4.878359
4.967626
5.046683
5.114735
5.170509
5.211343
5.234140
3.172722
3.168456
3.178477
3.211777
3.265501
3.331450
3.404241
3.481169
3.561358
3.644358
3.729895
3.817605
3.907019
3.997556
4.088548
4.179255
4.268884
4.356601
4.441543
4.522840
4.599634
4.671140
4.736727
4.796082
4.849394
4.897291
4.939709
4.973795
4.994284
3.195427
3.198752
3.230555
3.298403
3.386916
3.483057
3.578853
3.672038
3.761426
3.846886
3.928420
4.006088
4.079905
4.149851
4.215884
4.277949
4.335985
4.389931
4.439725
4.485307
4.526646
4.563766
4.596866
4.626426
4.653520
4.680048
4.707889
4.735309
4.754682
3.175549
3.189666
3.262373
3.376742
3.508064
3.634918
3.754404
3.863466
3.961850
4.049575
4.127012
4.194589
4.252790
4.302141
4.343216
4.376642
4.403091
4.423275
4.437934
4.447826
4.453726
4.456456
4.456908
4.456287
4.456055
4.458870
4.469071
4.488602
4.508339
3.072731
3.134792
3.271063
3.460228
3.632749
3.793300
3.935719
4.060436
4.167331
4.256944
4.329907
4.387017
4.429197
4.457510
4.473147
4.477418
4.471740
4.457607
4.436573
4.410222
4.380147
4.347928
4.315179
4.283440
4.254827
4.230972
4.217645
4.224260
4.244881
2.876629
2.993068
3.305548
3.549048
3.771477
3.962897
4.128136
4.267688
4.382561
4.473477
4.541351
4.587295
4.612667
4.619061
4.608295
4.582377
4.543481
4.493905
4.436037
4.372311
4.305156
4.236955
4.169934
4.106254
4.047393
3.996303
3.951355
3.930194
3.947448
2.304988
2.972551
3.346685
3.667232
3.928408
4.150044
4.336326
4.490016
4.612167
4.703685
4.765624
4.799396
4.806787
4.789941
4.751316
4.693644
4.619880
4.533152
4.436715
4.333886
4.227981
4.122212
4.019586
3.922588
3.833326
3.751425
3.680526
3.601968
3.577689
SCALARS u2 float
LOOKUP_TABLE default
0.886053
-0.000000
0.306572
0.518490
0.656526
0.749389
0.811630
0.851207
0.873504
0.883345
0.885907
-0.000000
-0.742851
-0.741375
-0.732927
-0.710364
-0.668325
-0.602179
-0.505959
-0.369526
-0.180337
0.068630
-1.046177
-0.830081
-0.674477
-0.411177
-0.106968
0.242815
0.627581
1.039132
1.466773
1.899199
2.324779
2.732163
3.110622
3.450320
3.742497
3.979617
4.155484
4.265337
4.305924
4.275564
4.174186
4.003371
3.766306
3.467786
3.113481
2.710209
2.260531
1.761584
1.204323
1.324645
1.780442
2.242701
2.688483
3.098409
3.459234
3.762316
4.001838
4.173784
4.275577
4.306039
4.265440
4.155553
3.979653
3.742499
3.450265
3.110451
2.731770
2.324032
1.898035
1.465510
1.039167
0.632869
0.261853
-0.057519
-0.309812
-0.486260
-0.594490
-0.666891
-0.665428
-0.595252
-0.487461
-0.310754
-0.058032
0.261622
0.632747
1.039049
1.465350
1.897818
2.323758
2.731442
3.110075
3.449847
3.742045
3.979170
4.155048
4.264922
4.305515
4.275058
4.173281
4.001367
3.761902
3.458908
3.098193
2.688335
2.242439
1.779720
1.323051
-0.660856
-0.598533
-0.492874
-0.314953
-0.060326
0.260634
0.632338
1.038770
1.465003
1.897338
2.323135
2.730687
3.109202
3.448873
3.740986
3.978043
4.153870
4.263712
4.304292
4.273847
4.172117
4.000305
3.761029
3.458340
3.098000
2.688314
2.241788
1.776955
1.317167
-0.653527
-0.606698
-0.505340
-0.324349
-0.065379
0.258517
0.631592
1.038455
1.464692
1.896883
2.322507
2.729899
3.108278
3.447835
3.739855
3.976838
4.152609
4.262413
4.302980
4.272554
4.170897
3.999254
3.760310
3.458176
3.098524
2.689099
2.241088
1.771557
1.305362
-0.644910
-0.622950
-0.526486
-0.339275
-0.073081
0.255356
0.630572
1.038186
1.464552
1.896636
2.322105
2.729354
3.107616
3.447080
3.739027
3.975952
4.151680
4.261455
4.302012
4.271609
4.170041
3.998614
3.760108
3.458729
3.100063
2.691097
2.240936
1.763994
1.286617
-0.638130
-0.651384
-0.556768
-0.358298
-0.082351
0.251666
0.629434
1.038051
1.464645
1.896692
2.322054
2.729207
3.107398
3.446814
3.738727
3.975626
4.151334
4.261095
4.301647
4.271268
4.169788
3.998589
3.760560
3.460025
3.102555
2.694456
2.242248
1.755625
1.260184
-0.640135
-0.696850
-0.593853
-0.378267
-0.091349
0.247995
0.628479
1.038083
1.464982
1.897054
2.322379
2.729500
3.107680
3.447102
3.739027
3.975939
4.151655
4.261418
4.301973
4.271611
4.170204
3.999200
3.761613
3.461874
3.105612
2.698881
2.245913
1.748894
1.226203
-0.666925
-0.761459
-0.630912
-0.393990
-0.099267
0.245273
0.627805
1.038314
1.465500
1.897654
2.323010
2.730167
3.108396
3.447874
3.739854
3.976813
4.152562
4.262345
4.302907
4.272554
4.171188
4.000321
3.763046
3.463973
3.108690
2.703373
2.251945
1.747567
1.187245
-0.749212
-0.837786
-0.649580
-0.406866
-0.103832
0.243508
0.627551
1.038658
1.466087
1.898354
2.323793
2.731034
3.109355
3.448922
3.740985
3.978011
4.153810
4.263621
4.304194
4.273841
4.172485
4.001675
3.764586
3.465848
3.111426
2.706737
2.257654
1.755730
1.152248
-0.955547
-0.846133
-0.664685
-0.411929
-0.105946
0.242786
0.627576
1.038981
1.466579
1.898953
2.324488
2.731826
3.110242
3.449900
3.742042
3.979134
4.154980
4.264821
4.305404
4.275046
4.173678
4.002869
3.765820
3.467252
3.112961
2.709568
2.258482
1.768484
1.147116
