# vtk DataFile Version 2.0
Generated volume Mesh
ASCII
DATASET UNSTRUCTURED_GRID
POINTS 891 float
0.005000 0.100000 0.000000
0.005000 0.000000 0.000000
0.005000 0.001250 0.000000
0.005000 0.002500 0.000000
0.005000 0.003750 0.000000
0.005000 0.005000 0.000000
0.005000 0.006250 0.000000
0.005000 0.007500 0.000000
0.005000 0.008750 0.000000
0.005000 0.010000 0.000000
0.005000 0.011250 0.000000
0.005000 0.012500 0.000000
0.005000 0.013750 0.000000
0.005000 0.015000 0.000000
0.005000 0.016250 0.000000
0.005000 0.017500 0.000000
0.005000 0.018750 0.000000
0.005000 0.020000 0.000000
0.005000 0.021250 0.000000
0.005000 0.022500 0.000000
0.005000 0.023750 0.000000
0.005000 0.025000 0.000000
0.005000 0.026250 0.000000
0.005000 0.027500 0.000000
0.005000 0.028750 0.000000
0.005000 0.030000 0.000000
0.005000 0.031250 0.000000
0.005000 0.032500 0.000000
0.005000 0.033750 0.000000
0.005000 0.035000 0.000000
0.005000 0.036250 0.000000
0.005000 0.037500 0.000000
0.005000 0.038750 0.000000
0.005000 0.040000 0.000000
0.005000 0.041250 0.000000
0.005000 0.042500 0.000000
0.005000 0.043750 0.000000
0.005000 0.045000 0.000000
0.005000 0.046250 0.000000
0.005000 0.047500 0.000000
0.005000 0.048750 0.000000
0.005000 0.050000 0.000000
0.005000 0.051250 0.000000
0.005000 0.052500 0.000000
0.005000 0.053750 0.000000
0.005000 0.055000 0.000000
0.005000 0.056250 0.000000
0.005000 0.057500 0.000000
0.005000 0.058750 0.000000
0.005000 0.060000 0.000000
0.005000 0.061250 0.000000
0.005000 0.062500 0.000000
0.005000 0.063750 0.000000
0.005000 0.065000 0.000000
0.005000 0.066250 0.000000
0.005000 0.067500 0.000000
0.005000 0.068750 0.000000
0.005000 0.070000 0.000000
0.005000 0.071250 0.000000
0.005000 0.072500 0.000000
0.005000 0.073750 0.000000
0.005000 0.075000 0.000000
0.005000 0.076250 0.000000
0.005000 0.077500 0.000000
0.005000 0.078750 0.000000
0.005000 0.080000 0.000000
0.005000 0.081250 0.000000
0.005000 0.082500 0.000000
0.005000 0.083750 0.000000
0.005000 0.085000 0.000000
0.005000 0.086250 0.000000
0.005000 0.087500 0.000000
0.005000 0.088750 0.000000
0.005000 0.090000 0.000000
0.005000 0.091250 0.000000
0.005000 0.092500 0.000000
0.005000 0.093750 0.000000
0.005000 0.095000 0.000000
0.005000 0.096250 0.000000
0.005000 0.097500 0.000000
0.005000 0.098750 0.000000
0.000000 0.000000 0.000000
0.000000 0.100000 0.000000
0.000000 0.098750 0.000000
0.000000 0.097500 0.000000
0.000000 0.096250 0.000000
0.000000 0.095000 0.000000
0.000000 0.093750 0.000000
0.000000 0.092500 0.000000
0.000000 0.091250 0.000000
0.000000 0.090000 0.000000
0.000000 0.088750 0.000000
0.000000 0.087500 0.000000
0.000000 0.086250 0.000000
0.000000 0.085000 0.000000
0.000000 0.083750 0.000000
0.000000 0.082500 0.000000
0.000000 0.081250 0.000000
0.000000 0.080000 0.000000
0.000000 0.078750 0.000000
0.000000 0.077500 0.000000
0.000000 0.076250 0.000000
0.000000 0.075000 0.000000
0.000000 0.073750 0.000000
0.000000 0.072500 0.000000
0.000000 0.071250 0.000000
0.000000 0.070000 0.000000
0.000000 0.068750 0.000000
0.000000 0.067500 0.000000
0.000000 0.066250 0.000000
0.000000 0.065000 0.000000
0.000000 0.063750 0.000000
0.000000 0.062500 0.000000
0.000000 0.061250 0.000000
0.000000 0.060000 0.000000
0.000000 0.058750 0.000000
0.000000 0.057500 0.000000
0.000000 0.056250 0.000000
0.000000 0.055000 0.000000
0.000000 0.053750 0.000000
0.000000 0.052500 0.000000
0.000000 0.051250 0.000000
0.000000 0.050000 0.000000
0.000000 0.048750 0.000000
0.000000 0.047500 0.000000
0.000000 0.046250 0.000000
0.000000 0.045000 0.000000
0.000000 0.043750 0.000000
0.000000 0.042500 0.000000
0.000000 0.041250 0.000000
0.000000 0.040000 0.000000
0.000000 0.038750 0.000000
0.000000 0.037500 0.000000
0.000000 0.036250 0.000000
0.000000 0.035000 0.000000
0.000000 0.033750 0.000000
0.000000 0.032500 0.000000
0.000000 0.031250 0.000000
0.000000 0.030000 0.000000
0.000000 0.028750 0.000000
0.000000 0.027500 0.000000
0.000000 0.026250 0.000000
0.000000 0.025000 0.000000
0.000000 0.023750 0.000000
0.000000 0.022500 0.000000
0.000000 0.021250 0.000000
0.000000 0.020000 0.000000
0.000000 0.018750 0.000000
0.000000 0.017500 0.000000
0.000000 0.016250 0.000000
0.000000 0.015000 0.000000
0.000000 0.013750 0.000000
0.000000 0.012500 0.000000
0.000000 0.011250 0.000000
0.000000 0.010000 0.000000
0.000000 0.008750 0.000000
0.000000 0.007500 0.000000
0.000000 0.006250 0.000000
0.000000 0.005000 0.000000
0.000000 0.003750 0.000000
0.000000 0.002500 0.000000
0.000000 0.001250 0.000000
0.000500 0.000000 0.000000
0.001000 0.000000 0.000000
0.001500 0.000000 0.000000
0.002000 0.000000 0.000000
0.002500 0.000000 0.000000
0.003000 0.000000 0.000000
0.003500 0.000000 0.000000
0.004000 0.000000 0.000000
0.004500 0.000000 0.000000
0.004500 0.100000 0.000000
0.004000 0.100000 0.000000
0.003500 0.100000 0.000000
0.003000 0.100000 0.000000
0.002500 0.100000 0.000000
0.002000 0.100000 0.000000
0.001500 0.100000 0.000000
0.001000 0.100000 0.000000
0.000500 0.100000 0.000000
0.000500 0.098750 0.000000
0.001000 0.098750 0.000000
0.001500 0.098750 0.000000
0.002000 0.098750 0.000000
0.002500 0.098750 0.000000
0.003000 0.098750 0.000000
0.003500 0.098750 0.000000
0.004000 0.098750 0.000000
0.004500 0.098750 0.000000
0.000500 0.097500 0.000000
0.001000 0.097500 0.000000
0.001500 0.097500 0.000000
0.002000 0.097500 0.000000
0.002500 0.097500 0.000000
0.003000 0.097500 0.000000
0.003500 0.097500 0.000000
0.004000 0.097500 0.000000
0.004500 0.097500 0.000000
0.000500 0.096250 0.000000
0.001000 0.096250 0.000000
0.001500 0.096250 0.000000
0.002000 0.096250 0.000000
0.002500 0.096250 0.000000
0.003000 0.096250 0.000000
0.003500 0.096250 0.000000
0.004000 0.096250 0.000000
0.004500 0.096250 0.000000
0.000500 0.095000 0.000000
0.001000 0.095000 0.000000
0.001500 0.095000 0.000000
0.002000 0.095000 0.000000
0.002500 0.095000 0.000000
0.003000 0.095000 0.000000
0.003500 0.095000 0.000000
0.004000 0.095000 0.000000
0.004500 0.095000 0.000000
0.000500 0.093750 0.000000
0.001000 0.093750 0.000000
0.001500 0.093750 0.000000
0.002000 0.093750 0.000000
0.002500 0.093750 0.000000
0.003000 0.093750 0.000000
0.003500 0.093750 0.000000
0.004000 0.093750 0.000000
0.004500 0.093750 0.000000
0.000500 0.092500 0.000000
0.001000 0.092500 0.000000
0.001500 0.092500 0.000000
0.002000 0.092500 0.000000
0.002500 0.092500 0.000000
0.003000 0.092500 0.000000
0.003500 0.092500 0.000000
0.004000 0.092500 0.000000
0.004500 0.092500 0.000000
0.000500 0.091250 0.000000
0.001000 0.091250 0.000000
0.001500 0.091250 0.000000
0.002000 0.091250 0.000000
0.002500 0.091250 0.000000
0.003000 0.091250 0.000000
0.003500 0.091250 0.000000
0.004000 0.091250 0.000000
0.004500 0.091250 0.000000
0.000500 0.090000 0.000000
0.001000 0.090000 0.000000
0.001500 0.090000 0.000000
0.002000 0.090000 0.000000
0.002500 0.090000 0.000000
0.003000 0.090000 0.000000
0.003500 0.090000 0.000000
0.004000 0.090000 0.000000
0.004500 0.090000 0.000000
0.000500 0.088750 0.000000
0.001000 0.088750 0.000000
0.001500 0.088750 0.000000
0.002000 0.088750 0.000000
0.002500 0.088750 0.000000
0.003000 0.088750 0.000000
0.003500 0.088750 0.000000
0.004000 0.088750 0.000000
0.004500 0.088750 0.000000
0.000500 0.087500 0.000000
0.001000 0.087500 0.000000
0.001500 0.087500 0.000000
0.002000 0.087500 0.000000
0.002500 0.087500 0.000000
0.003000 0.087500 0.000000
0.003500 0.087500 0.000000
0.004000 0.087500 0.000000
0.004500 0.087500 0.000000
0.000500 0.086250 0.000000
0.001000 0.086250 0.000000
0.001500 0.086250 0.000000
0.002000 0.086250 0.000000
0.002500 0.086250 0.000000
0.003000 0.086250 0.000000
0.003500 0.086250 0.000000
0.004000 0.086250 0.000000
0.004500 0.086250 0.000000
0.000500 0.085000 0.000000
0.001000 0.085000 0.000000
0.001500 0.085000 0.000000
0.002000 0.085000 0.000000
0.002500 0.085000 0.000000
0.003000 0.085000 0.000000
0.003500 0.085000 0.000000
0.004000 0.085000 0.000000
0.004500 0.085000 0.000000
0.000500 0.083750 0.000000
0.001000 0.083750 0.000000
0.001500 0.083750 0.000000
0.002000 0.083750 0.000000
0.002500 0.083750 0.000000
0.003000 0.083750 0.000000
0.003500 0.083750 0.000000
0.004000 0.083750 0.000000
0.004500 0.083750 0.000000
0.000500 0.082500 0.000000
0.001000 0.082500 0.000000
0.001500 0.082500 0.000000
0.002000 0.082500 0.000000
0.002500 0.082500 0.000000
0.003000 0.082500 0.000000
0.003500 0.082500 0.000000
0.004000 0.082500 0.000000
0.004500 0.082500 0.000000
0.000500 0.081250 0.000000
0.001000 0.081250 0.000000
0.001500 0.081250 0.000000
0.002000 0.081250 0.000000
0.002500 0.081250 0.000000
0.003000 0.081250 0.000000
0.003500 0.081250 0.000000
0.004000 0.081250 0.000000
0.004500 0.081250 0.000000
0.000500 0.080000 0.000000
0.001000 0.080000 0.000000
0.001500 0.080000 0.000000
0.002000 0.080000 0.000000
0.002500 0.080000 0.000000
0.003000 0.080000 0.000000
0.003500 0.080000 0.000000
0.004000 0.080000 0.000000
0.004500 0.080000 0.000000
0.000500 0.078750 0.000000
0.001000 0.078750 0.000000
0.001500 0.078750 0.000000
0.002000 0.078750 0.000000
0.002500 0.078750 0.000000
0.003000 0.078750 0.000000
0.003500 0.078750 0.000000
0.004000 0.078750 0.000000
0.004500 0.078750 0.000000
0.000500 0.077500 0.000000
0.001000 0.077500 0.000000
0.001500 0.077500 0.000000
0.002000 0.077500 0.000000
0.002500 0.077500 0.000000
0.003000 0.077500 0.000000
0.003500 0.077500 0.000000
0.004000 0.077500 0.000000
0.004500 0.077500 0.000000
0.000500 0.076250 0.000000
0.001000 0.076250 0.000000
0.001500 0.076250 0.000000
0.002000 0.076250 0.000000
0.002500 0.076250 0.000000
0.003000 0.076250 0.000000
0.003500 0.076250 0.000000
0.004000 0.076250 0.000000
0.004500 0.076250 0.000000
0.000500 0.075000 0.000000
0.001000 0.075000 0.000000
0.001500 0.075000 0.000000
0.002000 0.075000 0.000000
0.002500 0.075000 0.000000
0.003000 0.075000 0.000000
0.003500 0.075000 0.000000
0.004000 0.075000 0.000000
0.004500 0.075000 0.000000
0.000500 0.073750 0.000000
0.001000 0.073750 0.000000
0.001500 0.073750 0.000000
0.002000 0.073750 0.000000
0.002500 0.073750 0.000000
0.003000 0.073750 0.000000
[...]
POINT_DATA 891
SCALARS u1 float
LOOKUP_TABLE default
2e-17
-2e-06
-2e-06
-2e-06
-2e-06
-2e-06
-2e-06
-2e-06
-2e-06
-2e-06
-2e-06
-2e-06
-2e-06
-2e-06
-2e-06
-2e-06
-2e-06
-2e-06
-2e-06
-2e-06
-2e-06
-2e-06
-2e-06
-2e-06
-2e-06
-2e-06
-2e-06
-2e-06
-2e-06
-2e-06
-2e-06
-2e-06
-2e-06
-2e-06
-2e-06
-2e-06
-2e-06
-2e-06
-2e-06
-2e-06
-2e-06
-2e-06
-2e-06
-2e-06
-2e-06
-2e-06
-2e-06
-2e-06
-2e-06
-2e-06
-2e-06
-2e-06
-2e-06
-2e-06
-2e-06
-2e-06
-2e-06
-2e-06
-2e-06
-2e-06
-2e-06
-2e-06
-2e-06
-2e-06
-2e-06
-2e-06
-2e-06
-2e-06
-2e-06
-2e-06
-2e-06
-2e-06
-2e-06
-2e-06
-2e-06
-2e-06
-2e-06
-2e-06
-2e-06
-2e-06
-1e-06
2e-06
-3e-18
1e-06
2e-06
2e-06
2e-06
2e-06
2e-06
2e-06
2e-06
2e-06
2e-06
2e-06
2e-06
2e-06
2e-06
2e-06
2e-06
2e-06
2e-06
2e-06
2e-06
2e-06
2e-06
2e-06
2e-06
2e-06
2e-06
2e-06
2e-06
2e-06
2e-06
2e-06
2e-06
2e-06
2e-06
2e-06
2e-06
2e-06
2e-06
2e-06
2e-06
2e-06
2e-06
2e-06
2e-06
2e-06
2e-06
2e-06
2e-06
2e-06
2e-06
2e-06
2e-06
2e-06
2e-06
2e-06
2e-06
2e-06
2e-06
2e-06
2e-06
2e-06
2e-06
2e-06
2e-06
2e-06
2e-06
2e-06
2e-06
2e-06
2e-06
2e-06
2e-06
2e-06
2e-06
2e-06
2e-06
2e-06
2e-06
2e-06
1e-06
1e-06
7e-07
3e-07
4e-14
-3e-07
-7e-07
-1e-06
-1e-06
-7e-17
5e-18
5e-17
3e-17
1e-17
7e-18
-1e-17
-7e-19
-2e-17
1e-06
7e-07
4e-07
2e-07
-5e-15
-2e-07
-4e-07
-7e-07
-1e-06
1e-06
1e-06
6e-07
3e-07
-6e-15
-3e-07
-6e-07
-1e-06
-1e-06
1e-06
1e-06
7e-07
3e-07
-7e-15
-3e-07
-7e-07
-1e-06
-1e-06
1e-06
1e-06
7e-07
3e-07
-4e-15
-3e-07
-7e-07
-1e-06
-1e-06
1e-06
1e-06
7e-07
3e-07
6e-17
-3e-07
-7e-07
-1e-06
-1e-06
1e-06
1e-06
7e-07
3e-07
5e-15
-3e-07
-7e-07
-1e-06
-1e-06
1e-06
1e-06
7e-07
3e-07
1e-14
-3e-07
-7e-07
-1e-06
-1e-06
1e-06
1e-06
7e-07
3e-07
1e-14
-3e-07
-7e-07
-1e-06
-1e-06
1e-06
1e-06
7e-07
3e-07
2e-14
-3e-07
-7e-07
-1e-06
-1e-06
1e-06
1e-06
7e-07
3e-07
2e-14
-3e-07
-7e-07
-1e-06
-1e-06
1e-06
1e-06
7e-07
3e-07
3e-14
-3e-07
-7e-07
-1e-06
-1e-06
1e-06
1e-06
7e-07
3e-07
3e-14
-3e-07
-7e-07
-1e-06
-1e-06
1e-06
1e-06
7e-07
3e-07
3e-14
-3e-07
-7e-07
-1e-06
-1e-06
1e-06
1e-06
7e-07
3e-07
3e-14
-3e-07
-7e-07
-1e-06
-1e-06
1e-06
1e-06
7e-07
3e-07
4e-14
-3e-07
-7e-07
-1e-06
-1e-06
1e-06
1e-06
7e-07
3e-07
4e-14
-3e-07
-7e-07
-1e-06
-1e-06
1e-06
1e-06
7e-07
3e-07
4e-14
-3e-07
-7e-07
-1e-06
-1e-06
1e-06
1e-06
7e-07
3e-07
4e-14
-3e-07
-7e-07
-1e-06
-1e-06
1e-06
1e-06
7e-07
3e-07
4e-14
-3e-07
-7e-07
-1e-06
-1e-06
1e-06
1e-06
7e-07
3e-07
4e-14
-3e-07
-7e-07
-1e-06
-1e-06
1e-06
1e-06
7e-07
3e-07
4e-14
-3e-07
-7e-07
-1e-06
-1e-06
1e-06
1e-06
7e-07
3e-07
4e-14
-3e-07
-7e-07
-1e-06
-1e-06
1e-06
1e-06
7e-07
3e-07
4e-14
-3e-07
-7e-07
-1e-06
-1e-06
1e-06
1e-06
7e-07
3e-07
4e-14
-3e-07
-7e-07
-1e-06
-1e-06
1e-06
1e-06
7e-07
3e-07
4e-14
-3e-07
-7e-07
-1e-06
-1e-06
1e-06
1e-06
7e-07
3e-07
4e-14
-3e-07
-7e-07
-1e-06
-1e-06
1e-06
1e-06
7e-07
3e-07
4e-14
-3e-07
-7e-07
-1e-06
-1e-06
1e-06
1e-06
7e-07
3e-07
4e-14
-3e-07
-7e-07
-1e-06
-1e-06
1e-06
1e-06
7e-07
3e-07
4e-14
-3e-07
-7e-07
-1e-06
-1e-06
1e-06
1e-06
7e-07
3e-07
4e-14
-3e-07
-7e-07
-1e-06
-1e-06
1e-06
1e-06
7e-07
3e-07
4e-14
-3e-07
-7e-07
-1e-06
-1e-06
1e-06
1e-06
7e-07
3e-07
4e-14
-3e-07
-7e-07
-1e-06
-1e-06
1e-06
1e-06
7e-07
3e-07
4e-14
-3e-07
-7e-07
-1e-06
-1e-06
1e-06
1e-06
7e-07
3e-07
4e-14
-3e-07
-7e-07
-1e-06
-1e-06
1e-06
1e-06
7e-07
3e-07
4e-14
-3e-07
-7e-07
-1e-06
-1e-06
1e-06
1e-06
7e-07
3e-07
4e-14
-3e-07
-7e-07
-1e-06
-1e-06
1e-06
1e-06
7e-07
3e-07
4e-14
-3e-07
-7e-07
-1e-06
-1e-06
1e-06
1e-06
7e-07
3e-07
4e-14
-3e-07
-7e-07
-1e-06
-1e-06
1e-06
1e-06
7e-07
3e-07
4e-14
-3e-07
-7e-07
-1e-06
-1e-06
1e-06
1e-06
7e-07
3e-07
4e-14
-3e-07
-7e-07
-1e-06
-1e-06
1e-06
1e-06
7e-07
3e-07
4e-14
-3e-07
-7e-07
-1e-06
-1e-06
1e-06
1e-06
7e-07
3e-07
4e-14
-3e-07
-7e-07
-1e-06
-1e-06
1e-06
1e-06
7e-07
3e-07
4e-14
-3e-07
-7e-07
-1e-06
-1e-06
1e-06
1e-06
7e-07
3e-07
4e-14
-3e-07
-7e-07
-1e-06
-1e-06
1e-06
1e-06
7e-07
3e-07
4e-14
-3e-07
-7e-07
-1e-06
-1e-06
1e-06
1e-06
7e-07
3e-07
4e-14
-3e-07
-7e-07
-1e-06
-1e-06
1e-06
1e-06
7e-07
3e-07
4e-14
-3e-07
-7e-07
-1e-06
-1e-06
1e-06
1e-06
7e-07
3e-07
4e-14
-3e-07
-7e-07
-1e-06
-1e-06
1e-06
1e-06
7e-07
3e-07
4e-14
-3e-07
-7e-07
-1e-06
-1e-06
1e-06
1e-06
7e-07
3e-07
4e-14
-3e-07
-7e-07
-1e-06
-1e-06
1e-06
1e-06
7e-07
3e-07
4e-14
-3e-07
-7e-07
-1e-06
-1e-06
1e-06
1e-06
7e-07
3e-07
4e-14
-3e-07
-7e-07
-1e-06
-1e-06
1e-06
1e-06
7e-07
3e-07
4e-14
-3e-07
-7e-07
-1e-06
-1e-06
1e-06
1e-06
7e-07
3e-07
4e-14
-3e-07
-7e-07
-1e-06
-1e-06
1e-06
1e-06
7e-07
3e-07
4e-14
-3e-07
-7e-07
-1e-06
-1e-06
1e-06
1e-06
7e-07
3e-07
4e-14
-3e-07
-7e-07
-1e-06
-1e-06
1e-06
1e-06
7e-07
3e-07
4e-14
-3e-07
-7e-07
-1e-06
-1e-06
1e-06
1e-06
7e-07
3e-07
4e-14
-3e-07
-7e-07
-1e-06
-1e-06
1e-06
1e-06
7e-07
3e-07
4e-14
-3e-07
-7e-07
-1e-06
-1e-06
1e-06
1e-06
7e-07
3e-07
4e-14
-3e-07
-7e-07
-1e-06
-1e-06
1e-06
1e-06
7e-07
3e-07
4e-14
-3e-07
-7e-07
-1e-06
-1e-06
1e-06
1e-06
7e-07
3e-07
4e-14
-3e-07
-7e-07
-1e-06
-1e-06
1e-06
1e-06
7e-07
3e-07
4e-14
-3e-07
-7e-07
-1e-06
-1e-06
1e-06
1e-06
7e-07
3e-07
4e-14
-3e-07
-7e-07
-1e-06
-1e-06
1e-06
1e-06
7e-07
3e-07
4e-14
-3e-07
-7e-07
-1e-06
-1e-06
1e-06
1e-06
7e-07
3e-07
4e-14
-3e-07
-7e-07
-1e-06
-1e-06
1e-06
1e-06
7e-07
3e-07
4e-14
-3e-07
-7e-07
-1e-06
-1e-06
1e-06
1e-06
7e-07
3e-07
4e-14
-3e-07
-7e-07
-1e-06
-1e-06
1e-06
1e-06
7e-07
3e-07
4e-14
-3e-07
-7e-07
-1e-06
-1e-06
1e-06
1e-06
7e-07
3e-07
4e-14
-3e-07
-7e-07
-1e-06
-1e-06
1e-06
1e-06
7e-07
3e-07
4e-14
-3e-07
-7e-07
-1e-06
-1e-06
1e-06
1e-06
7e-07
3e-07
4e-14
-3e-07
-7e-07
-1e-06
-1e-06
1e-06
1e-06
7e-07
3e-07
4e-14
-3e-07
-7e-07
-1e-06
-1e-06
1e-06
1e-06
7e-07
3e-07
4e-14
-3e-07
-7e-07
-1e-06
-1e-06
1e-06
1e-06
7e-07
3e-07
4e-14
-3e-07
-7e-07
-1e-06
-1e-06
1e-06
1e-06
7e-07
3e-07
4e-14
-3e-07
-7e-07
-1e-06
-1e-06
1e-06
1e-06
7e-07
3e-07
4e-14
-3e-07
-7e-07
-1e-06
-1e-06
1e-06
1e-06
7e-07
3e-07
4e-14
-3e-07
-7e-07
-1e-06
-1e-06
1e-06
1e-06
7e-07
3e-07
4e-14
-3e-07
-7e-07
-1e-06
-1e-06
SCALARS u2 float
LOOKUP_TABLE default
-1e-17
-0.0005
-0.0004
-0.0004
-0.0004
-0.0004
-0.0004
-0.0004
-0.0004
-0.0004
-0.0004
-0.0004
-0.0004
-0.0004
-0.0004
-0.0004
-0.0004
-0.0004
-0.0004
-0.0003
-0.0003
-0.0003
-0.0003
-0.0003
-0.0003
-0.0003
-0.0003
-0.0003
-0.0003
-0.0003
-0.0003
-0.0003
-0.0003
-0.0003
-0.0003
-0.0003
-0.0003
-0.0002
-0.0002
-0.0002
-0.0002
-0.0002
-0.0002
-0.0002
-0.0002
-0.0002
-0.0002
-0.0002
-0.0002
-0.0002
-0.0002
-0.0002
-0.0002
-0.0002
-0.0002
-0.0001
-0.0001
-0.0001
-0.0001
-0.0001
-0.0001
-0.0001
-0.0001
-0.0001
-0.0001
-9e-05
-8e-05
-8e-05
-7e-05
-7e-05
-6e-05
-6e-05
-5e-05
-4e-05
-4e-05
-3e-05
-3e-05
-2e-05
-2e-05
-1e-05
-6e-06
-0.0005
5e-19
-6e-06
-1e-05
-2e-05
-2e-05
-3e-05
-3e-05
-4e-05
-4e-05
-5e-05
-6e-05
-6e-05
-7e-05
-7e-05
-8e-05
-8e-05
-9e-05
-0.0001
-0.0001
-0.0001
-0.0001
-0.0001
-0.0001
-0.0001
-0.0001
-0.0001
-0.0001
-0.0002
-0.0002
-0.0002
-0.0002
-0.0002
-0.0002
-0.0002
-0.0002
-0.0002
-0.0002
-0.0002
-0.0002
-0.0002
-0.0002
-0.0002
-0.0002
-0.0002
-0.0002
-0.0003
-0.0003
-0.0003
-0.0003
-0.0003
-0.0003
-0.0003
-0.0003
-0.0003
-0.0003
-0.0003
-0.0003
-0.0003
-0.0003
-0.0003
-0.0003
-0.0003
-0.0003
-0.0004
-0.0004
-0.0004
-0.0004
-0.0004
-0.0004
-0.0004
-0.0004
-0.0004
-0.0004
-0.0004
-0.0004
-0.0004
-0.0004
-0.0004
-0.0004
-0.0004
-0.0005
-0.0005
-0.0005
-0.0005
-0.0005
-0.0005
-0.0005
-0.0005
-0.0005
-1e-18
-6e-17
2e-17
-1e-17
4e-17
-9e-17
-5e-17
1e-17
6e-17
-6e-06
-6e-06
-5e-06
-5e-06
-5e-06
-5e-06
-5e-06
-6e-06
-6e-06
-1e-05
-1e-05
-1e-05
-1e-05
-1e-05
-1e-05
-1e-05
-1e-05
-1e-05
-2e-05
-2e-05
-2e-05
-2e-05
-2e-05
-2e-05
-2e-05
-2e-05
-2e-05
-2e-05
-2e-05
-2e-05
-2e-05
-2e-05
-2e-05
-2e-05
-2e-05
-2e-05
-3e-05
-3e-05
-3e-05
-3e-05
-3e-05
-3e-05
-3e-05
-3e-05
-3e-05
-3e-05
-3e-05
-3e-05
-3e-05
-3e-05
-3e-05
-3e-05
-3e-05
-3e-05
-4e-05
-4e-05
-4e-05
-4e-05
-4e-05
-4e-05
-4e-05
-4e-05
-4e-05
-4e-05
-4e-05
-4e-05
-4e-05
-4e-05
-4e-05
-4e-05
-4e-05
-4e-05
-5e-05
-5e-05
-5e-05
-5e-05
-5e-05
-5e-05
-5e-05
-5e-05
-5e-05
-6e-05
-6e-05
-6e-05
-6e-05
-6e-05
-6e-05
-6e-05
-6e-05
-6e-05
-6e-05
-6e-05
-6e-05
-6e-05
-6e-05
-6e-05
-6e-05
-6e-05
-6e-05
-7e-05
-7e-05
-7e-05
-7e-05
-7e-05
-7e-05
-7e-05
-7e-05
-7e-05
-7e-05
-7e-05
-7e-05
-7e-05
-7e-05
-7e-05
-7e-05
-7e-05
-7e-05
-8e-05
-8e-05
-8e-05
-8e-05
-8e-05
-8e-05
-8e-05
-8e-05
-8e-05
-8e-05
-8e-05
-8e-05
-8e-05
-8e-05
-8e-05
-8e-05
-8e-05
-8e-05
-9e-05
-9e-05
-9e-05
-9e-05
-9e-05
-9e-05
-9e-05
-9e-05
-9e-05
-0.0001
-0.0001
-0.0001
-0.0001
-0.0001
-0.0001
-0.0001
-0.0001
-0.0001
-0.0001
-0.0001
-0.0001
-0.0001
-0.0001
-0.0001
-0.0001
-0.0001
-0.0001
-0.0001
-0.0001
-0.0001
-0.0001
-0.0001
-0.0001
-0.0001
-0.0001
-0.0001
-0.0001
-0.0001
-0.0001
-0.0001
-0.0001
-0.0001
-0.0001
-0.0001
-0.0001
-0.0001
-0.0001
-0.0001
-0.0001
-0.0001
-0.0001
-0.0001
-0.0001
-0.0001
-0.0001
-0.0001
-0.0001
-0.0001
-0.0001
-0.0001
-0.0001
-0.0001
-0.0001
-0.0001
-0.0001
-0.0001
-0.0001
-0.0001
-0.0001
-0.0001
-0.0001
-0.0001
-0.0001
-0.0001
-0.0001
-0.0001
-0.0001
-0.0001
-0.0001
-0.0001
-0.0001
-0.0001
-0.0001
-0.0001
-0.0001
-0.0001
-0.0001
-0.0001
-0.0001
-0.0001
-0.0001
-0.0001
-0.0001
-0.0001
-0.0001
-0.0001
-0.0001
-0.0001
-0.0001
-0.0002
-0.0002
-0.0002
-0.0002
-0.0002
-0.0002
-0.0002
-0.0002
-0.0002
-0.0002
-0.0002
-0.0002
-0.0002
-0.0002
-0.0002
-0.0002
-0.0002
-0.0002
-0.0002
-0.0002
-0.0002
-0.0002
-0.0002
-0.0002
-0.0002
-0.0002
-0.0002
-0.0002
-0.0002
-0.0002
-0.0002
-0.0002
-0.0002
-0.0002
-0.0002
-0.0002
-0.0002
-0.0002
-0.0002
-0.0002
-0.0002
-0.0002
-0.0002
-0.0002
-0.0002
-0.0002
-0.0002
-0.0002
-0.0002
-0.0002
-0.0002
-0.0002
-0.0002
-0.0002
-0.0002
-0.0002
-0.0002
-0.0002
-0.0002
-0.0002
-0.0002
-0.0002
-0.0002
-0.0002
-0.0002
-0.0002
-0.0002
-0.0002
-0.0002
-0.0002
-0.0002
-0.0002
-0.0002
-0.0002
-0.0002
-0.0002
-0.0002
-0.0002
-0.0002
-0.0002
-0.0002
-0.0002
-0.0002
-0.0002
-0.0002
-0.0002
-0.0002
-0.0002
-0.0002
-0.0002
-0.0002
-0.0002
-0.0002
-0.0002
-0.0002
-0.0002
-0.0002
-0.0002
-0.0002
-0.0002
-0.0002
-0.0002
-0.0002
-0.0002
-0.0002
-0.0002
-0.0002
-0.0002
-0.0002
-0.0002
-0.0002
-0.0002
-0.0002
-0.0002
-0.0002
-0.0002
-0.0002
-0.0002
-0.0002
-0.0002
-0.0002
-0.0002
-0.0002
-0.0002
-0.0002
-0.0002
-0.0002
-0.0002
-0.0002
-0.0002
-0.0002
-0.0002
-0.0002
-0.0002
-0.0002
-0.0002
-0.0002
-0.0002
-0.0002
-0.0002
-0.0002
-0.0002
-0.0002
-0.0002
-0.0002
-0.0002
-0.0002
-0.0002
-0.0002
-0.0002
-0.0002
-0.0002
-0.0002
-0.0002
-0.0002
-0.0002
-0.0002
-0.0002
-0.0002
-0.0002
-0.0002
-0.0002
-0.0003
-0.0003
-0.0003
-0.0003
-0.0003
-0.0003
-0.0003
-0.0003
-0.0003
-0.0003
-0.0003
-0.0003
-0.0003
-0.0003
-0.0003
-0.0003
-0.0003
-0.0003
-0.0003
-0.0003
-0.0003
-0.0003
-0.0003
-0.0003
-0.0003
-0.0003
-0.0003
-0.0003
-0.0003
-0.0003
-0.0003
-0.0003
-0.0003
-0.0003
-0.0003
-0.0003
-0.0003
-0.0003
-0.0003
-0.0003
-0.0003
-0.0003
-0.0003
-0.0003
-0.0003
-0.0003
-0.0003
-0.0003
-0.0003
-0.0003
-0.0003
-0.0003
-0.0003
-0.0003
-0.0003
-0.0003
-0.0003
-0.0003
-0.0003
-0.0003
-0.0003
-0.0003
-0.0003
-0.0003
-0.0003
-0.0003
-0.0003
-0.0003
-0.0003
-0.0003
-0.0003
-0.0003
-0.0003
-0.0003
-0.0003
-0.0003
-0.0003
-0.0003
-0.0003
-0.0003
-0.0003
-0.0003
-0.0003
-0.0003
-0.0003
-0.0003
-0.0003
-0.0003
-0.0003
-0.0003
-0.0003
-0.0003
-0.0003
-0.0003
-0.0003
-0.0003
-0.0003
-0.0003
-0.0003
-0.0003
-0.0003
-0.0003
-0.0003
-0.0003
-0.0003
-0.0003
-0.0003
-0.0003
-0.0003
-0.0003
-0.0003
-0.0003
-0.0003
-0.0003
-0.0003
-0.0003
-0.0003
-0.0003
-0.0003
-0.0003
-0.0003
-0.0003
-0.0003
-0.0003
-0.0003
-0.0003
-0.0003
-0.0003
-0.0003
-0.0003
-0.0003
-0.0003
-0.0003
-0.0003
-0.0003
-0.0003
-0.0003
-0.0003
-0.0003
-0.0003
-0.0003
-0.0003
-0.0003
-0.0003
-0.0003
-0.0003
-0.0003
-0.0003
-0.0003
-0.0003
-0.0003
-0.0003
-0.0003
-0.0003
-0.0003
-0.0003
-0.0003
-0.0003
-0.0003
-0.0003
-0.0003
-0.0003
-0.0004
-0.0004
-0.0004
-0.0004
-0.0004
-0.0004
-0.0004
-0.0004
-0.0004
-0.0004
-0.0004
-0.0004
-0.0004
-0.0004
-0.0004
-0.0004
-0.0004
-0.0004
-0.0004
-0.0004
-0.0004
-0.0004
-0.0004
-0.0004
-0.0004
-0.0004
-0.0004
-0.0004
-0.0004
-0.0004
-0.0004
-0.0004
-0.0004
-0.0004
-0.0004
-0.0004
-0.0004
-0.0004
-0.0004
-0.0004
-0.0004
-0.0004
-0.0004
-0.0004
-0.0004
-0.0004
-0.0004
-0.0004
-0.0004
-0.0004
-0.0004
-0.0004
-0.0004
-0.0004
-0.0004
-0.0004
-0.0004
-0.0004
-0.0004
-0.0004
-0.0004
-0.0004
-0.0004
-0.0004
-0.0004
-0.0004
-0.0004
-0.0004
-0.0004
-0.0004
-0.0004
-0.0004
-0.0004
-0.0004
-0.0004
-0.0004
-0.0004
-0.0004
-0.0004
-0.0004
-0.0004
-0.0004
-0.0004
-0.0004
-0.0004
-0.0004
-0.0004
-0.0004
-0.0004
-0.0004
-0.0004
-0.0004
-0.0004
-0.0004
-0.0004
-0.0004
-0.0004
-0.0004
-0.0004
-0.0004
-0.0004
-0.0004
-0.0004
-0.0004
-0.0004
-0.0004
-0.0004
-0.0004
-0.0004
-0.0004
-0.0004
-0.0004
-0.0004
-0.0004
-0.0004
-0.0004
-0.0004
-0.0004
-0.0004
-0.0004
-0.0004
-0.0004
-0.0004
-0.0004
-0.0004
-0.0004
-0.0004
-0.0004
-0.0004
-0.0004
-0.0004
-0.0004
-0.0004
-0.0004
-0.0004
-0.0004
-0.0004
-0.0004
-0.0004
-0.0004
-0.0004
-0.0004
-0.0004
-0.0004
-0.0004
-0.0004
-0.0004
-0.0004
-0.0004
-0.0004
-0.0004
-0.0004
-0.0004
SCALARS strain_1 float
LOOKUP_TABLE default
-0.000123
-0.196603
-0.193630
-0.190642
-0.187640
-0.184624
-0.181595
-0.178556
-0.175503
-0.172441
-0.169368
-0.166286
-0.163198
-0.160100
-0.156998
-0.153889
-0.150776
-0.147659
-0.144541
-0.141420
-0.138301
-0.135182
-0.132065
-0.128951
-0.125842
-0.122739
-0.119643
-0.116555
-0.113477
-0.110409
-0.107355
-0.104315
-0.101288
-0.098279
-0.095288
-0.092317
-0.089366
-0.086438
-0.083534
-0.080654
-0.077803
-0.074979
-0.072186
-0.069424
-0.066695
-0.063999
-0.061341
-0.058719
-0.056138
-0.053596
-0.051095
-0.048637
-0.046225
-0.043858
-0.041539
-0.039267
-0.037046
-0.034875
-0.032757
-0.030691
-0.028680
-0.026724
-0.024825
-0.022982
-0.021196
-0.019470
-0.017803
-0.016196
-0.014649
-0.013163
-0.011738
-0.010375
-0.009073
-0.007833
-0.006655
-0.005539
-0.004485
-0.003490
-0.002559
-0.001687
-0.000875
-0.196778
-0.000005
-0.000758
-0.001573
-0.002446
-0.003382
-0.004377
-0.005434
-0.006554
-0.007734
-0.008978
-0.010283
-0.011649
-0.013078
-0.014567
-0.016118
-0.017729
-0.019400
-0.021130
-0.022919
-0.024766
-0.026670
-0.028630
-0.030645
-0.032715
-0.034838
-0.037013
-0.039239
-0.041514
-0.043839
-0.046209
-0.048627
-0.051090
-0.053594
-0.056140
-0.058728
-0.061354
-0.064017
-0.066716
-0.069451
-0.072217
-0.075015
-0.077843
-0.080699
-0.083583
-0.086491
-0.089424
-0.092379
-0.095355
-0.098351
-0.101364
-0.104393
-0.107439
-0.110497
-0.113568
-0.116651
-0.119742
-0.122842
-0.125949
-0.129062
-0.132179
-0.135300
-0.138422
-0.141546
-0.144669
-0.147791
-0.150911
-0.154027
-0.157139
-0.160244
-0.163344
-0.166437
-0.169522
-0.172596
-0.175661
-0.178716
-0.181759
-0.184790
-0.187808
-0.190813
-0.193802
-0.196762
-0.196745
-0.196728
-0.196711
-0.196694
-0.196676
-0.196657
-0.196640
-0.196622
-0.000100
-0.000078
-0.000060
-0.000045
-0.000032
-0.000021
-0.000013
-0.000008
-0.000005
-0.000758
-0.000761
-0.000767
-0.000774
-0.000784
-0.000797
-0.000814
-0.000831
-0.000852
-0.001572
-0.001574
-0.001579
-0.001587
-0.001597
-0.001610
-0.001625
-0.001643
-0.001664
-0.002446
-0.002448
-0.002452
-0.002460
-0.002470
-0.002482
-0.002497
-0.002515
-0.002535
-0.003380
-0.003382
-0.003387
-0.003394
-0.003403
-0.003415
-0.003430
-0.003448
-0.003468
-0.004376
-0.004378
-0.004382
-0.004388
-0.004397
-0.004410
-0.004424
-0.004442
-0.004461
-0.005433
-0.005434
-0.005438
-0.005444
-0.005453
-0.005465
-0.005479
-0.005496
-0.005517
-0.006551
-0.006552
-0.006556
-0.006563
-0.006571
-0.006583
-0.006597
-0.006613
-0.006633
-0.007732
-0.007733
-0.007736
-0.007742
-0.007751
-0.007762
-0.007776
-0.007792
-0.007811
-0.008976
-0.008976
-0.008978
-0.008984
-0.008992
-0.009003
-0.009016
-0.009032
-0.009051
-0.010280
-0.010280
-0.010282
-0.010288
-0.010295
-0.010306
-0.010320
-0.010335
-0.010354
-0.011646
-0.011646
-0.011648
-0.011653
-0.011661
-0.011671
-0.011684
-0.011699
-0.011717
-0.013075
-0.013074
-0.013076
-0.013080
-0.013088
-0.013098
-0.013110
-0.013125
-0.013143
-0.014564
-0.014563
-0.014564
-0.014569
-0.014575
-0.014585
-0.014596
-0.014611
-0.014629
-0.016114
-0.016112
-0.016114
-0.016118
-0.016124
-0.016133
-0.016146
-0.016160
-0.016177
-0.017725
-0.017724
-0.017724
-0.017728
-0.017734
-0.017742
-0.017754
-0.017768
-0.017784
-0.019395
-0.019394
-0.019394
-0.019397
-0.019403
-0.019411
-0.019423
-0.019436
-0.019452
-0.021125
-0.021123
-0.021123
-0.021127
-0.021132
-0.021139
-0.021150
-0.021163
-0.021179
-0.022914
-0.022911
-0.022911
-0.022914
-0.022920
-0.022927
-0.022936
-0.022949
-0.022965
-0.024761
-0.024758
-0.024757
-0.024759
-0.024763
-0.024771
-0.024781
-0.024793
-0.024808
-0.026664
-0.026661
-0.026661
-0.026662
-0.026666
-0.026673
-0.026682
-0.026694
-0.026708
-0.028624
-0.028620
-0.028619
-0.028621
-0.028625
-0.028630
-0.028640
-0.028651
-0.028664
-0.030639
-0.030635
-0.030634
-0.030635
-0.030638
-0.030644
-0.030652
-0.030663
-0.030676
-0.032708
-0.032704
-0.032703
-0.032703
-0.032706
-0.032712
-0.032719
-0.032730
-0.032742
-0.034831
-0.034827
-0.034824
-0.034824
-0.034827
-0.034833
-0.034839
-0.034849
-0.034861
-0.037006
-0.037001
-0.036998
-0.036998
-0.037000
-0.037004
-0.037011
-0.037021
-0.037032
-0.039232
-0.039227
-0.039223
-0.039223
-0.039224
-0.039228
-0.039235
-0.039243
-0.039254
-0.041507
-0.041501
-0.041498
-0.041497
-0.041498
-0.041502
-0.041508
-0.041516
-0.041526
-0.043831
-0.043825
-0.043822
-0.043820
-0.043820
-0.043824
-0.043829
-0.043837
-0.043846
-0.046202
-0.046196
-0.046192
-0.046190
-0.046190
-0.046193
-0.046197
-0.046204
-0.046213
-0.048619
-0.048612
-0.048608
-0.048605
-0.048606
-0.048608
-0.048612
-0.048618
-0.048627
-0.051080
-0.051073
-0.051069
-0.051066
-0.051066
-0.051068
-0.051071
-0.051076
-0.051085
-0.053585
-0.053578
-0.053573
-0.053570
-0.053569
-0.053570
-0.053573
-0.053578
-0.053586
-0.056131
-0.056123
-0.056118
-0.056115
-0.056113
-0.056114
-0.056117
-0.056122
-0.056129
-0.058718
-0.058710
-0.058705
-0.058701
-0.058699
-0.058699
-0.058701
-0.058706
-0.058712
-0.061343
-0.061336
-0.061329
-0.061325
-0.061323
-0.061323
-0.061325
-0.061329
-0.061334
-0.064007
-0.063999
-0.063992
-0.063987
-0.063984
-0.063984
-0.063985
-0.063988
-0.063993
-0.066706
-0.066697
-0.066690
-0.066685
-0.066682
-0.066681
-0.066681
-0.066684
-0.066689
-0.069440
-0.069430
-0.069423
-0.069418
-0.069415
-0.069413
-0.069413
-0.069414
-0.069418
-0.072206
-0.072196
-0.072189
-0.072183
-0.072180
-0.072177
-0.072177
-0.072178
-0.072181
-0.075004
-0.074994
-0.074986
-0.074980
-0.074976
-0.074973
-0.074972
-0.074973
-0.074975
-0.077831
-0.077821
-0.077813
-0.077807
-0.077802
-0.077798
-0.077798
-0.077798
-0.077799
-0.080688
-0.080677
-0.080669
-0.080662
-0.080657
-0.080654
-0.080651
-0.080651
-0.080652
-0.083570
-0.083561
-0.083552
-0.083545
-0.083538
-0.083535
-0.083532
-0.083531
-0.083531
-0.086479
-0.086469
-0.086459
-0.086452
-0.086446
-0.086441
-0.086439
-0.086437
-0.086437
-0.089412
-0.089401
-0.089391
-0.089384
-0.089377
-0.089372
-0.089368
-0.089366
-0.089366
-0.092367
-0.092355
-0.092345
-0.092337
-0.092330
-0.092326
-0.092321
-0.092318
-0.092317
-0.095342
-0.095331
-0.095321
-0.095313
-0.095305
-0.095299
-0.095294
-0.095291
-0.095289
-0.098337
-0.098326
-0.098316
-0.098306
-0.098299
-0.098292
-0.098287
-0.098283
-0.098281
-0.101350
-0.101339
-0.101328
-0.101319
-0.101311
-0.101304
-0.101298
-0.101293
-0.101291
-0.104381
-0.104369
-0.104357
-0.104347
-0.104340
-0.104332
-0.104326
-0.104321
-0.104317
-0.107425
-0.107413
-0.107402
-0.107392
-0.107383
-0.107375
-0.107368
-0.107363
-0.107359
-0.110483
-0.110471
-0.110460
-0.110450
-0.110441
-0.110432
-0.110424
-0.110419
-0.110414
-0.113555
-0.113543
-0.113530
-0.113520
-0.113510
-0.113501
-0.113494
-0.113487
-0.113482
-0.116637
-0.116624
-0.116612
-0.116601
-0.116591
-0.116582
-0.116574
-0.116566
-0.116561
-0.119728
-0.119716
-0.119703
-0.119692
-0.119681
-0.119671
-0.119663
-0.119656
-0.119649
-0.122828
-0.122815
-0.122802
-0.122791
-0.122780
-0.122771
-0.122761
-0.122753
-0.122746
-0.125935
-0.125922
-0.125909
-0.125897
-0.125886
-0.125875
-0.125866
-0.125857
-0.125850
-0.129048
-0.129034
-0.129021
-0.129009
-0.128997
-0.128987
-0.128977
-0.128967
-0.128959
-0.132165
-0.132151
-0.132137
-0.132125
-0.132114
-0.132102
-0.132092
-0.132082
-0.132073
-0.135285
-0.135271
-0.135258
-0.135245
-0.135233
-0.135221