# vtk DataFile Version 2.0
Generated volume Mesh
ASCII
DATASET UNSTRUCTURED_GRID
POINTS 891 float
0.005000 0.100000 0.000000
0.005000 0.000000 0.000000
0.005000 0.001250 0.000000
0.005000 0.002500 0.000000
0.005000 0.003750 0.000000
0.005000 0.005000 0.000000
0.005000 0.006250 0.000000
0.005000 0.007500 0.000000
0.005000 0.008750 0.000000
0.005000 0.010000 0.000000
0.005000 0.011250 0.000000
0.005000 0.012500 0.000000
0.005000 0.013750 0.000000
0.005000 0.015000 0.000000
0.005000 0.016250 0.000000
0.005000 0.017500 0.000000
0.005000 0.018750 0.000000
0.005000 0.020000 0.000000
0.005000 0.021250 0.000000
0.005000 0.022500 0.000000
0.005000 0.023750 0.000000
0.005000 0.025000 0.000000
0.005000 0.026250 0.000000
0.005000 0.027500 0.000000
0.005000 0.028750 0.000000
0.005000 0.030000 0.000000
0.005000 0.031250 0.000000
0.005000 0.032500 0.000000
0.005000 0.033750 0.000000
0.005000 0.035000 0.000000
0.005000 0.036250 0.000000
0.005000 0.037500 0.000000
0.005000 0.038750 0.000000
0.005000 0.040000 0.000000
0.005000 0.041250 0.000000
0.005000 0.042500 0.000000
0.005000 0.043750 0.000000
0.005000 0.045000 0.000000
0.005000 0.046250 0.000000
0.005000 0.047500 0.000000
0.005000 0.048750 0.000000
0.005000 0.050000 0.000000
0.005000 0.051250 0.000000
0.005000 0.052500 0.000000
0.005000 0.053750 0.000000
0.005000 0.055000 0.000000
0.005000 0.056250 0.000000
0.005000 0.057500 0.000000
0.005000 0.058750 0.000000
0.005000 0.060000 0.000000
0.005000 0.061250 0.000000
0.005000 0.062500 0.000000
0.005000 0.063750 0.000000
0.005000 0.065000 0.000000
0.005000 0.066250 0.000000
0.005000 0.067500 0.000000
0.005000 0.068750 0.000000
0.005000 0.070000 0.000000
0.005000 0.071250 0.000000
0.005000 0.072500 0.000000
0.005000 0.073750 0.000000
0.005000 0.075000 0.000000
0.005000 0.076250 0.000000
0.005000 0.077500 0.000000
0.005000 0.078750 0.000000
0.005000 0.080000 0.000000
0.005000 0.081250 0.000000
0.005000 0.082500 0.000000
0.005000 0.083750 0.000000
0.005000 0.085000 0.000000
0.005000 0.086250 0.000000
0.005000 0.087500 0.000000
0.005000 0.088750 0.000000
0.005000 0.090000 0.000000
0.005000 0.091250 0.000000
0.005000 0.092500 0.000000
0.005000 0.093750 0.000000
0.005000 0.095000 0.000000
0.005000 0.096250 0.000000
0.005000 0.097500 0.000000
0.005000 0.098750 0.000000
0.000000 0.000000 0.000000
0.000000 0.100000 0.000000
0.000000 0.098750 0.000000
0.000000 0.097500 0.000000
0.000000 0.096250 0.000000
0.000000 0.095000 0.000000
0.000000 0.093750 0.000000
0.000000 0.092500 0.000000
0.000000 0.091250 0.000000
0.000000 0.090000 0.000000
0.000000 0.088750 0.000000
0.000000 0.087500 0.000000
0.000000 0.086250 0.000000
0.000000 0.085000 0.000000
0.000000 0.083750 0.000000
0.000000 0.082500 0.000000
0.000000 0.081250 0.000000
0.000000 0.080000 0.000000
0.000000 0.078750 0.000000
0.000000 0.077500 0.000000
0.000000 0.076250 0.000000
0.000000 0.075000 0.000000
0.000000 0.073750 0.000000
0.000000 0.072500 0.000000
0.000000 0.071250 0.000000
0.000000 0.070000 0.000000
0.000000 0.068750 0.000000
0.000000 0.067500 0.000000
0.000000 0.066250 0.000000
0.000000 0.065000 0.000000
0.000000 0.063750 0.000000
0.000000 0.062500 0.000000
0.000000 0.061250 0.000000
0.000000 0.060000 0.000000
0.000000 0.058750 0.000000
0.000000 0.057500 0.000000
0.000000 0.056250 0.000000
0.000000 0.055000 0.000000
0.000000 0.053750 0.000000
0.000000 0.052500 0.000000
0.000000 0.051250 0.000000
0.000000 0.050000 0.000000
0.000000 0.048750 0.000000
0.000000 0.047500 0.000000
0.000000 0.046250 0.000000
0.000000 0.045000 0.000000
0.000000 0.043750 0.000000
0.000000 0.042500 0.000000
0.000000 0.041250 0.000000
0.000000 0.040000 0.000000
0.000000 0.038750 0.000000
0.000000 0.037500 0.000000
0.000000 0.036250 0.000000
0.000000 0.035000 0.000000
0.000000 0.033750 0.000000
0.000000 0.032500 0.000000
0.000000 0.031250 0.000000
0.000000 0.030000 0.000000
0.000000 0.028750 0.000000
0.000000 0.027500 0.000000
0.000000 0.026250 0.000000
0.000000 0.025000 0.000000
0.000000 0.023750 0.000000
0.000000 0.022500 0.000000
0.000000 0.021250 0.000000
0.000000 0.020000 0.000000
0.000000 0.018750 0.000000
0.000000 0.017500 0.000000
0.000000 0.016250 0.000000
0.000000 0.015000 0.000000
0.000000 0.013750 0.000000
0.000000 0.012500 0.000000
0.000000 0.011250 0.000000
0.000000 0.010000 0.000000
0.000000 0.008750 0.000000
0.000000 0.007500 0.000000
0.000000 0.006250 0.000000
0.000000 0.005000 0.000000
0.000000 0.003750 0.000000
0.000000 0.002500 0.000000
0.000000 0.001250 0.000000
0.000500 0.000000 0.000000
0.001000 0.000000 0.000000
0.001500 0.000000 0.000000
0.002000 0.000000 0.000000
0.002500 0.000000 0.000000
0.003000 0.000000 0.000000
0.003500 0.000000 0.000000
0.004000 0.000000 0.000000
0.004500 0.000000 0.000000
0.004500 0.100000 0.000000
0.004000 0.100000 0.000000
0.003500 0.100000 0.000000
0.003000 0.100000 0.000000
0.002500 0.100000 0.000000
0.002000 0.100000 0.000000
0.001500 0.100000 0.000000
0.001000 0.100000 0.000000
0.000500 0.100000 0.000000
0.000500 0.098750 0.000000
0.001000 0.098750 0.000000
0.001500 0.098750 0.000000
0.002000 0.098750 0.000000
0.002500 0.098750 0.000000
0.003000 0.098750 0.000000
0.003500 0.098750 0.000000
0.004000 0.098750 0.000000
0.004500 0.098750 0.000000
0.000500 0.097500 0.000000
0.001000 0.097500 0.000000
0.001500 0.097500 0.000000
0.002000 0.097500 0.000000
0.002500 0.097500 0.000000
0.003000 0.097500 0.000000
0.003500 0.097500 0.000000
0.004000 0.097500 0.000000
0.004500 0.097500 0.000000
0.000500 0.096250 0.000000
0.001000 0.096250 0.000000
0.001500 0.096250 0.000000
0.002000 0.096250 0.000000
0.002500 0.096250 0.000000
0.003000 0.096250 0.000000
0.003500 0.096250 0.000000
0.004000 0.096250 0.000000
0.004500 0.096250 0.000000
0.000500 0.095000 0.000000
0.001000 0.095000 0.000000
0.001500 0.095000 0.000000
0.002000 0.095000 0.000000
0.002500 0.095000 0.000000
0.003000 0.095000 0.000000
0.003500 0.095000 0.000000
0.004000 0.095000 0.000000
0.004500 0.095000 0.000000
0.000500 0.093750 0.000000
0.001000 0.093750 0.000000
0.001500 0.093750 0.000000
0.002000 0.093750 0.000000
0.002500 0.093750 0.000000
0.003000 0.093750 0.000000
0.003500 0.093750 0.000000
0.004000 0.093750 0.000000
0.004500 0.093750 0.000000
0.000500 0.092500 0.000000
0.001000 0.092500 0.000000
0.001500 0.092500 0.000000
0.002000 0.092500 0.000000
0.002500 0.092500 0.000000
0.003000 0.092500 0.000000
0.003500 0.092500 0.000000
0.004000 0.092500 0.000000
0.004500 0.092500 0.000000
0.000500 0.091250 0.000000
0.001000 0.091250 0.000000
0.001500 0.091250 0.000000
0.002000 0.091250 0.000000
0.002500 0.091250 0.000000
0.003000 0.091250 0.000000
0.003500 0.091250 0.000000
0.004000 0.091250 0.000000
0.004500 0.091250 0.000000
0.000500 0.090000 0.000000
0.001000 0.090000 0.000000
0.001500 0.090000 0.000000
0.002000 0.090000 0.000000
0.002500 0.090000 0.000000
0.003000 0.090000 0.000000
0.003500 0.090000 0.000000
0.004000 0.090000 0.000000
0.004500 0.090000 0.000000
0.000500 0.088750 0.000000
0.001000 0.088750 0.000000
0.001500 0.088750 0.000000
0.002000 0.088750 0.000000
0.002500 0.088750 0.000000
0.003000 0.088750 0.000000
0.003500 0.088750 0.000000
0.004000 0.088750 0.000000
0.004500 0.088750 0.000000
0.000500 0.087500 0.000000
0.001000 0.087500 0.000000
0.001500 0.087500 0.000000
0.002000 0.087500 0.000000
0.002500 0.087500 0.000000
0.003000 0.087500 0.000000
0.003500 0.087500 0.000000
0.004000 0.087500 0.000000
0.004500 0.087500 0.000000
0.000500 0.086250 0.000000
0.001000 0.086250 0.000000
0.001500 0.086250 0.000000
0.002000 0.086250 0.000000
0.002500 0.086250 0.000000
0.003000 0.086250 0.000000
0.003500 0.086250 0.000000
0.004000 0.086250 0.000000
0.004500 0.086250 0.000000
0.000500 0.085000 0.000000
0.001000 0.085000 0.000000
0.001500 0.085000 0.000000
0.002000 0.085000 0.000000
0.002500 0.085000 0.000000
0.003000 0.085000 0.000000
0.003500 0.085000 0.000000
0.004000 0.085000 0.000000
0.004500 0.085000 0.000000
0.000500 0.083750 0.000000
0.001000 0.083750 0.000000
0.001500 0.083750 0.000000
0.002000 0.083750 0.000000
0.002500 0.083750 0.000000
0.003000 0.083750 0.000000
0.003500 0.083750 0.000000
0.004000 0.083750 0.000000
0.004500 0.083750 0.000000
0.000500 0.082500 0.000000
0.001000 0.082500 0.000000
0.001500 0.082500 0.000000
0.002000 0.082500 0.000000
0.002500 0.082500 0.000000
0.003000 0.082500 0.000000
0.003500 0.082500 0.000000
0.004000 0.082500 0.000000
0.004500 0.082500 0.000000
0.000500 0.081250 0.000000
0.001000 0.081250 0.000000
0.001500 0.081250 0.000000
0.002000 0.081250 0.000000
0.002500 0.081250 0.000000
0.003000 0.081250 0.000000
0.003500 0.081250 0.000000
0.004000 0.081250 0.000000
0.004500 0.081250 0.000000
0.000500 0.080000 0.000000
0.001000 0.080000 0.000000
0.001500 0.080000 0.000000
0.002000 0.080000 0.000000
0.002500 0.080000 0.000000
0.003000 0.080000 0.000000
0.003500 0.080000 0.000000
0.004000 0.080000 0.000000
0.004500 0.080000 0.000000
0.000500 0.078750 0.000000
0.001000 0.078750 0.000000
0.001500 0.078750 0.000000
0.002000 0.078750 0.000000
0.002500 0.078750 0.000000
0.003000 0.078750 0.000000
0.003500 0.078750 0.000000
0.004000 0.078750 0.000000
0.004500 0.078750 0.000000
0.000500 0.077500 0.000000
0.001000 0.077500 0.000000
0.001500 0.077500 0.000000
0.002000 0.077500 0.000000
0.002500 0.077500 0.000000
0.003000 0.077500 0.000000
0.003500 0.077500 0.000000
0.004000 0.077500 0.000000
0.004500 0.077500 0.000000
0.000500 0.076250 0.000000
0.001000 0.076250 0.000000
0.001500 0.076250 0.000000
0.002000 0.076250 0.000000
0.002500 0.076250 0.000000
0.003000 0.076250 0.000000
0.003500 0.076250 0.000000
0.004000 0.076250 0.000000
0.004500 0.076250 0.000000
0.000500 0.075000 0.000000
0.001000 0.075000 0.000000
0.001500 0.075000 0.000000
0.002000 0.075000 0.000000
0.002500 0.075000 0.000000
0.003000 0.075000 0.000000
0.003500 0.075000 0.000000
0.004000 0.075000 0.000000
0.004500 0.075000 0.000000
0.000500 0.073750 0.000000
0.001000 0.073750 0.000000
0.001500 0.073750 0.000000
0.002000 0.073750 0.000000
0.002500 0.073750 0.000000
0.003000 0.073750 0.000000
[...]
POINT_DATA 891
SCALARS u1 float
LOOKUP_TABLE default
-4e-18
-9e-07
-9e-07
-9e-07
-9e-07
-9e-07
-9e-07
-9e-07
-9e-07
-9e-07
-9e-07
-9e-07
-9e-07
-9e-07
-9e-07
-9e-07
-9e-07
-9e-07
-9e-07
-9e-07
-9e-07
-9e-07
-9e-07
-9e-07
-9e-07
-9e-07
-9e-07
-9e-07
-9e-07
-9e-07
-9e-07
-9e-07
-9e-07
-9e-07
-9e-07
-9e-07
-9e-07
-9e-07
-9e-07
-9e-07
-9e-07
-9e-07
-9e-07
-9e-07
-9e-07
-9e-07
-9e-07
-9e-07
-9e-07
-9e-07
-9e-07
-9e-07
-9e-07
-9e-07
-9e-07
-9e-07
-9e-07
-9e-07
-9e-07
-9e-07
-9e-07
-9e-07
-9e-07
-9e-07
-9e-07
-9e-07
-9e-07
-9e-07
-9e-07
-9e-07
-9e-07
-9e-07
-9e-07
-9e-07
-9e-07
-9e-07
-9e-07
-9e-07
-9e-07
-9e-07
-7e-07
9e-07
4e-17
7e-07
9e-07
9e-07
9e-07
9e-07
9e-07
9e-07
9e-07
9e-07
9e-07
9e-07
9e-07
9e-07
9e-07
9e-07
9e-07
9e-07
9e-07
9e-07
9e-07
9e-07
9e-07
9e-07
9e-07
9e-07
9e-07
9e-07
9e-07
9e-07
9e-07
9e-07
9e-07
9e-07
9e-07
9e-07
9e-07
9e-07
9e-07
9e-07
9e-07
9e-07
9e-07
9e-07
9e-07
9e-07
9e-07
9e-07
9e-07
9e-07
9e-07
9e-07
9e-07
9e-07
9e-07
9e-07
9e-07
9e-07
9e-07
9e-07
9e-07
9e-07
9e-07
9e-07
9e-07
9e-07
9e-07
9e-07
9e-07
9e-07
9e-07
9e-07
9e-07
9e-07
9e-07
9e-07
9e-07
9e-07
9e-07
9e-07
7e-07
5e-07
4e-07
2e-07
-6e-14
-2e-07
-4e-07
-5e-07
-7e-07
-6e-19
8e-18
-5e-17
3e-17
2e-17
-6e-17
-4e-17
-6e-18
4e-17
5e-07
4e-07
2e-07
1e-07
-1e-14
-1e-07
-2e-07
-4e-07
-5e-07
7e-07
5e-07
3e-07
2e-07
-4e-14
-2e-07
-3e-07
-5e-07
-7e-07
7e-07
6e-07
4e-07
2e-07
-5e-14
-2e-07
-4e-07
-6e-07
-7e-07
7e-07
6e-07
4e-07
2e-07
-6e-14
-2e-07
-4e-07
-6e-07
-7e-07
7e-07
5e-07
4e-07
2e-07
-6e-14
-2e-07
-4e-07
-5e-07
-7e-07
7e-07
5e-07
4e-07
2e-07
-6e-14
-2e-07
-4e-07
-5e-07
-7e-07
7e-07
5e-07
4e-07
2e-07
-6e-14
-2e-07
-4e-07
-5e-07
-7e-07
7e-07
5e-07
4e-07
2e-07
-6e-14
-2e-07
-4e-07
-5e-07
-7e-07
7e-07
5e-07
4e-07
2e-07
-6e-14
-2e-07
-4e-07
-5e-07
-7e-07
7e-07
5e-07
4e-07
2e-07
-6e-14
-2e-07
-4e-07
-5e-07
-7e-07
7e-07
5e-07
4e-07
2e-07
-6e-14
-2e-07
-4e-07
-5e-07
-7e-07
7e-07
5e-07
4e-07
2e-07
-6e-14
-2e-07
-4e-07
-5e-07
-7e-07
7e-07
5e-07
4e-07
2e-07
-6e-14
-2e-07
-4e-07
-5e-07
-7e-07
7e-07
5e-07
4e-07
2e-07
-6e-14
-2e-07
-4e-07
-5e-07
-7e-07
7e-07
5e-07
4e-07
2e-07
-6e-14
-2e-07
-4e-07
-5e-07
-7e-07
7e-07
5e-07
4e-07
2e-07
-6e-14
-2e-07
-4e-07
-5e-07
-7e-07
7e-07
5e-07
4e-07
2e-07
-6e-14
-2e-07
-4e-07
-5e-07
-7e-07
7e-07
5e-07
4e-07
2e-07
-6e-14
-2e-07
-4e-07
-5e-07
-7e-07
7e-07
5e-07
4e-07
2e-07
-6e-14
-2e-07
-4e-07
-5e-07
-7e-07
7e-07
5e-07
4e-07
2e-07
-6e-14
-2e-07
-4e-07
-5e-07
-7e-07
7e-07
5e-07
4e-07
2e-07
-6e-14
-2e-07
-4e-07
-5e-07
-7e-07
7e-07
5e-07
4e-07
2e-07
-6e-14
-2e-07
-4e-07
-5e-07
-7e-07
7e-07
5e-07
4e-07
2e-07
-6e-14
-2e-07
-4e-07
-5e-07
-7e-07
7e-07
5e-07
4e-07
2e-07
-6e-14
-2e-07
-4e-07
-5e-07
-7e-07
7e-07
5e-07
4e-07
2e-07
-6e-14
-2e-07
-4e-07
-5e-07
-7e-07
7e-07
5e-07
4e-07
2e-07
-6e-14
-2e-07
-4e-07
-5e-07
-7e-07
7e-07
5e-07
4e-07
2e-07
-6e-14
-2e-07
-4e-07
-5e-07
-7e-07
7e-07
5e-07
4e-07
2e-07
-6e-14
-2e-07
-4e-07
-5e-07
-7e-07
7e-07
5e-07
4e-07
2e-07
-6e-14
-2e-07
-4e-07
-5e-07
-7e-07
7e-07
5e-07
4e-07
2e-07
-6e-14
-2e-07
-4e-07
-5e-07
-7e-07
7e-07
5e-07
4e-07
2e-07
-6e-14
-2e-07
-4e-07
-5e-07
-7e-07
7e-07
5e-07
4e-07
2e-07
-6e-14
-2e-07
-4e-07
-5e-07
-7e-07
7e-07
5e-07
4e-07
2e-07
-6e-14
-2e-07
-4e-07
-5e-07
-7e-07
7e-07
5e-07
4e-07
2e-07
-6e-14
-2e-07
-4e-07
-5e-07
-7e-07
7e-07
5e-07
4e-07
2e-07
-6e-14
-2e-07
-4e-07
-5e-07
-7e-07
7e-07
5e-07
4e-07
2e-07
-6e-14
-2e-07
-4e-07
-5e-07
-7e-07
7e-07
5e-07
4e-07
2e-07
-6e-14
-2e-07
-4e-07
-5e-07
-7e-07
7e-07
5e-07
4e-07
2e-07
-6e-14
-2e-07
-4e-07
-5e-07
-7e-07
7e-07
5e-07
4e-07
2e-07
-6e-14
-2e-07
-4e-07
-5e-07
-7e-07
7e-07
5e-07
4e-07
2e-07
-6e-14
-2e-07
-4e-07
-5e-07
-7e-07
7e-07
5e-07
4e-07
2e-07
-6e-14
-2e-07
-4e-07
-5e-07
-7e-07
7e-07
5e-07
4e-07
2e-07
-6e-14
-2e-07
-4e-07
-5e-07
-7e-07
7e-07
5e-07
4e-07
2e-07
-6e-14
-2e-07
-4e-07
-5e-07
-7e-07
7e-07
5e-07
4e-07
2e-07
-6e-14
-2e-07
-4e-07
-5e-07
-7e-07
7e-07
5e-07
4e-07
2e-07
-6e-14
-2e-07
-4e-07
-5e-07
-7e-07
7e-07
5e-07
4e-07
2e-07
-6e-14
-2e-07
-4e-07
-5e-07
-7e-07
7e-07
5e-07
4e-07
2e-07
-6e-14
-2e-07
-4e-07
-5e-07
-7e-07
7e-07
5e-07
4e-07
2e-07
-6e-14
-2e-07
-4e-07
-5e-07
-7e-07
7e-07
5e-07
4e-07
2e-07
-6e-14
-2e-07
-4e-07
-5e-07
-7e-07
7e-07
5e-07
4e-07
2e-07
-6e-14
-2e-07
-4e-07
-5e-07
-7e-07
7e-07
5e-07
4e-07
2e-07
-6e-14
-2e-07
-4e-07
-5e-07
-7e-07
7e-07
5e-07
4e-07
2e-07
-6e-14
-2e-07
-4e-07
-5e-07
-7e-07
7e-07
5e-07
4e-07
2e-07
-6e-14
-2e-07
-4e-07
-5e-07
-7e-07
7e-07
5e-07
4e-07
2e-07
-6e-14
-2e-07
-4e-07
-5e-07
-7e-07
7e-07
5e-07
4e-07
2e-07
-6e-14
-2e-07
-4e-07
-5e-07
-7e-07
7e-07
5e-07
4e-07
2e-07
-6e-14
-2e-07
-4e-07
-5e-07
-7e-07
7e-07
5e-07
4e-07
2e-07
-6e-14
-2e-07
-4e-07
-5e-07
-7e-07
7e-07
5e-07
4e-07
2e-07
-6e-14
-2e-07
-4e-07
-5e-07
-7e-07
7e-07
5e-07
4e-07
2e-07
-6e-14
-2e-07
-4e-07
-5e-07
-7e-07
7e-07
5e-07
4e-07
2e-07
-6e-14
-2e-07
-4e-07
-5e-07
-7e-07
7e-07
5e-07
4e-07
2e-07
-6e-14
-2e-07
-4e-07
-5e-07
-7e-07
7e-07
5e-07
4e-07
2e-07
-6e-14
-2e-07
-4e-07
-5e-07
-7e-07
7e-07
5e-07
4e-07
2e-07
-6e-14
-2e-07
-4e-07
-5e-07
-7e-07
7e-07
5e-07
4e-07
2e-07
-6e-14
-2e-07
-4e-07
-5e-07
-7e-07
7e-07
5e-07
4e-07
2e-07
-6e-14
-2e-07
-4e-07
-5e-07
-7e-07
7e-07
5e-07
4e-07
2e-07
-6e-14
-2e-07
-4e-07
-5e-07
-7e-07
7e-07
5e-07
4e-07
2e-07
-6e-14
-2e-07
-4e-07
-5e-07
-7e-07
7e-07
5e-07
4e-07
2e-07
-6e-14
-2e-07
-4e-07
-5e-07
-7e-07
7e-07
5e-07
4e-07
2e-07
-6e-14
-2e-07
-4e-07
-5e-07
-7e-07
7e-07
5e-07
4e-07
2e-07
-6e-14
-2e-07
-4e-07
-5e-07
-7e-07
7e-07
5e-07
4e-07
2e-07
-6e-14
-2e-07
-4e-07
-5e-07
-7e-07
7e-07
5e-07
4e-07
2e-07
-6e-14
-2e-07
-4e-07
-5e-07
-7e-07
7e-07
5e-07
4e-07
2e-07
-6e-14
-2e-07
-4e-07
-5e-07
-7e-07
7e-07
5e-07
4e-07
2e-07
-6e-14
-2e-07
-4e-07
-5e-07
-7e-07
7e-07
5e-07
4e-07
2e-07
-6e-14
-2e-07
-4e-07
-5e-07
-7e-07
7e-07
5e-07
4e-07
2e-07
-6e-14
-2e-07
-4e-07
-5e-07
-7e-07
7e-07
5e-07
4e-07
2e-07
-6e-14
-2e-07
-4e-07
-5e-07
-7e-07
7e-07
5e-07
4e-07
2e-07
-6e-14
-2e-07
-4e-07
-5e-07
-7e-07
7e-07
5e-07
4e-07
2e-07
-6e-14
-2e-07
-4e-07
-5e-07
-7e-07
SCALARS u2 float
LOOKUP_TABLE default
1e-16
-0.0003
-0.0002
-0.0002
-0.0002
-0.0002
-0.0002
-0.0002
-0.0002
-0.0002
-0.0002
-0.0002
-0.0002
-0.0002
-0.0002
-0.0002
-0.0002
-0.0002
-0.0002
-0.0002
-0.0002
-0.0002
-0.0002
-0.0002
-0.0002
-0.0002
-0.0002
-0.0002
-0.0002
-0.0002
-0.0002
-0.0002
-0.0002
-0.0002
-0.0001
-0.0001
-0.0001
-0.0001
-0.0001
-0.0001
-0.0001
-0.0001
-0.0001
-0.0001
-0.0001
-0.0001
-0.0001
-0.0001
-0.0001
-0.0001
-0.0001
-9e-05
-9e-05
-9e-05
-9e-05
-8e-05
-8e-05
-8e-05
-7e-05
-7e-05
-7e-05
-6e-05
-6e-05
-6e-05
-5e-05
-5e-05
-5e-05
-4e-05
-4e-05
-4e-05
-3e-05
-3e-05
-3e-05
-3e-05
-2e-05
-2e-05
-2e-05
-1e-05
-9e-06
-6e-06
-3e-06
-0.0003
6e-17
-3e-06
-6e-06
-9e-06
-1e-05
-2e-05
-2e-05
-2e-05
-3e-05
-3e-05
-3e-05
-3e-05
-4e-05
-4e-05
-4e-05
-5e-05
-5e-05
-5e-05
-6e-05
-6e-05
-6e-05
-7e-05
-7e-05
-7e-05
-8e-05
-8e-05
-8e-05
-9e-05
-9e-05
-9e-05
-9e-05
-0.0001
-0.0001
-0.0001
-0.0001
-0.0001
-0.0001
-0.0001
-0.0001
-0.0001
-0.0001
-0.0001
-0.0001
-0.0001
-0.0001
-0.0001
-0.0001
-0.0001
-0.0002
-0.0002
-0.0002
-0.0002
-0.0002
-0.0002
-0.0002
-0.0002
-0.0002
-0.0002
-0.0002
-0.0002
-0.0002
-0.0002
-0.0002
-0.0002
-0.0002
-0.0002
-0.0002
-0.0002
-0.0002
-0.0002
-0.0002
-0.0002
-0.0002
-0.0002
-0.0002
-0.0002
-0.0002
-0.0002
-0.0002
-0.0002
-0.0003
-0.0003
-0.0003
-0.0003
-0.0003
-0.0003
-0.0003
-0.0003
-0.0003
2e-17
-1e-16
-1e-16
9e-18
4e-17
3e-17
-4e-17
8e-17
-4e-17
-3e-06
-3e-06
-3e-06
-3e-06
-3e-06
-3e-06
-3e-06
-3e-06
-3e-06
-6e-06
-6e-06
-6e-06
-6e-06
-6e-06
-6e-06
-6e-06
-6e-06
-6e-06
-9e-06
-9e-06
-9e-06
-9e-06
-9e-06
-9e-06
-9e-06
-9e-06
-9e-06
-1e-05
-1e-05
-1e-05
-1e-05
-1e-05
-1e-05
-1e-05
-1e-05
-1e-05
-2e-05
-2e-05
-2e-05
-2e-05
-2e-05
-2e-05
-2e-05
-2e-05
-2e-05
-2e-05
-2e-05
-2e-05
-2e-05
-2e-05
-2e-05
-2e-05
-2e-05
-2e-05
-2e-05
-2e-05
-2e-05
-2e-05
-2e-05
-2e-05
-2e-05
-2e-05
-2e-05
-3e-05
-3e-05
-3e-05
-3e-05
-3e-05
-3e-05
-3e-05
-3e-05
-3e-05
-3e-05
-3e-05
-3e-05
-3e-05
-3e-05
-3e-05
-3e-05
-3e-05
-3e-05
-3e-05
-3e-05
-3e-05
-3e-05
-3e-05
-3e-05
-3e-05
-3e-05
-3e-05
-3e-05
-3e-05
-3e-05
-3e-05
-3e-05
-3e-05
-3e-05
-3e-05
-3e-05
-4e-05
-4e-05
-4e-05
-4e-05
-4e-05
-4e-05
-4e-05
-4e-05
-4e-05
-4e-05
-4e-05
-4e-05
-4e-05
-4e-05
-4e-05
-4e-05
-4e-05
-4e-05
-4e-05
-4e-05
-4e-05
-4e-05
-4e-05
-4e-05
-4e-05
-4e-05
-4e-05
-5e-05
-5e-05
-5e-05
-5e-05
-5e-05
-5e-05
-5e-05
-5e-05
-5e-05
-5e-05
-5e-05
-5e-05
-5e-05
-5e-05
-5e-05
-5e-05
-5e-05
-5e-05
-5e-05
-5e-05
-5e-05
-5e-05
-5e-05
-5e-05
-5e-05
-5e-05
-5e-05
-6e-05
-6e-05
-6e-05
-6e-05
-6e-05
-6e-05
-6e-05
-6e-05
-6e-05
-6e-05
-6e-05
-6e-05
-6e-05
-6e-05
-6e-05
-6e-05
-6e-05
-6e-05
-6e-05
-6e-05
-6e-05
-6e-05
-6e-05
-6e-05
-6e-05
-6e-05
-6e-05
-7e-05
-7e-05
-7e-05
-7e-05
-7e-05
-7e-05
-7e-05
-7e-05
-7e-05
-7e-05
-7e-05
-7e-05
-7e-05
-7e-05
-7e-05
-7e-05
-7e-05
-7e-05
-7e-05
-7e-05
-7e-05
-7e-05
-7e-05
-7e-05
-7e-05
-7e-05
-7e-05
-8e-05
-8e-05
-8e-05
-8e-05
-8e-05
-8e-05
-8e-05
-8e-05
-8e-05
-8e-05
-8e-05
-8e-05
-8e-05
-8e-05
-8e-05
-8e-05
-8e-05
-8e-05
-8e-05
-8e-05
-8e-05
-8e-05
-8e-05
-8e-05
-8e-05
-8e-05
-8e-05
-9e-05
-9e-05
-9e-05
-9e-05
-9e-05
-9e-05
-9e-05
-9e-05
-9e-05
-9e-05
-9e-05
-9e-05
-9e-05
-9e-05
-9e-05
-9e-05
-9e-05
-9e-05
-9e-05
-9e-05
-9e-05
-9e-05
-9e-05
-9e-05
-9e-05
-9e-05
-9e-05
-9e-05
-9e-05
-9e-05
-9e-05
-9e-05
-9e-05
-9e-05
-9e-05
-9e-05
-0.0001
-0.0001
-0.0001
-0.0001
-0.0001
-0.0001
-0.0001
-0.0001
-0.0001
-0.0001
-0.0001
-0.0001
-0.0001
-0.0001
-0.0001
-0.0001
-0.0001
-0.0001
-0.0001
-0.0001
-0.0001
-0.0001
-0.0001
-0.0001
-0.0001
-0.0001
-0.0001
-0.0001
-0.0001
-0.0001
-0.0001
-0.0001
-0.0001
-0.0001
-0.0001
-0.0001
-0.0001
-0.0001
-0.0001
-0.0001
-0.0001
-0.0001
-0.0001
-0.0001
-0.0001
-0.0001
-0.0001
-0.0001
-0.0001
-0.0001
-0.0001
-0.0001
-0.0001
-0.0001
-0.0001
-0.0001
-0.0001
-0.0001
-0.0001
-0.0001
-0.0001
-0.0001
-0.0001
-0.0001
-0.0001
-0.0001
-0.0001
-0.0001
-0.0001
-0.0001
-0.0001
-0.0001
-0.0001
-0.0001
-0.0001
-0.0001
-0.0001
-0.0001
-0.0001
-0.0001
-0.0001
-0.0001
-0.0001
-0.0001
-0.0001
-0.0001
-0.0001
-0.0001
-0.0001
-0.0001
-0.0001
-0.0001
-0.0001
-0.0001
-0.0001
-0.0001
-0.0001
-0.0001
-0.0001
-0.0001
-0.0001
-0.0001
-0.0001
-0.0001
-0.0001
-0.0001
-0.0001
-0.0001
-0.0001
-0.0001
-0.0001
-0.0001
-0.0001
-0.0001
-0.0001
-0.0001
-0.0001
-0.0001
-0.0001
-0.0001
-0.0001
-0.0001
-0.0001
-0.0001
-0.0001
-0.0001
-0.0001
-0.0001
-0.0001
-0.0001
-0.0001
-0.0001
-0.0001
-0.0001
-0.0001
-0.0001
-0.0001
-0.0001
-0.0001
-0.0001
-0.0001
-0.0001
-0.0001
-0.0001
-0.0001
-0.0001
-0.0001
-0.0001
-0.0001
-0.0001
-0.0001
-0.0001
-0.0001
-0.0002
-0.0002
-0.0002
-0.0002
-0.0002
-0.0002
-0.0002
-0.0002
-0.0002
-0.0002
-0.0002
-0.0002
-0.0002
-0.0002
-0.0002
-0.0002
-0.0002
-0.0002
-0.0002
-0.0002
-0.0002
-0.0002
-0.0002
-0.0002
-0.0002
-0.0002
-0.0002
-0.0002
-0.0002
-0.0002
-0.0002
-0.0002
-0.0002
-0.0002
-0.0002
-0.0002
-0.0002
-0.0002
-0.0002
-0.0002
-0.0002
-0.0002
-0.0002
-0.0002
-0.0002
-0.0002
-0.0002
-0.0002
-0.0002
-0.0002
-0.0002
-0.0002
-0.0002
-0.0002
-0.0002
-0.0002
-0.0002
-0.0002
-0.0002
-0.0002
-0.0002
-0.0002
-0.0002
-0.0002
-0.0002
-0.0002
-0.0002
-0.0002
-0.0002
-0.0002
-0.0002
-0.0002
-0.0002
-0.0002
-0.0002
-0.0002
-0.0002
-0.0002
-0.0002
-0.0002
-0.0002
-0.0002
-0.0002
-0.0002
-0.0002
-0.0002
-0.0002
-0.0002
-0.0002
-0.0002
-0.0002
-0.0002
-0.0002
-0.0002
-0.0002
-0.0002
-0.0002
-0.0002
-0.0002
-0.0002
-0.0002
-0.0002
-0.0002
-0.0002
-0.0002
-0.0002
-0.0002
-0.0002
-0.0002
-0.0002
-0.0002
-0.0002
-0.0002
-0.0002
-0.0002
-0.0002
-0.0002
-0.0002
-0.0002
-0.0002
-0.0002
-0.0002
-0.0002
-0.0002
-0.0002
-0.0002
-0.0002
-0.0002
-0.0002
-0.0002
-0.0002
-0.0002
-0.0002
-0.0002
-0.0002
-0.0002
-0.0002
-0.0002
-0.0002
-0.0002
-0.0002
-0.0002
-0.0002
-0.0002
-0.0002
-0.0002
-0.0002
-0.0002
-0.0002
-0.0002
-0.0002
-0.0002
-0.0002
-0.0002
-0.0002
-0.0002
-0.0002
-0.0002
-0.0002
-0.0002
-0.0002
-0.0002
-0.0002
-0.0002
-0.0002
-0.0002
-0.0002
-0.0002
-0.0002
-0.0002
-0.0002
-0.0002
-0.0002
-0.0002
-0.0002
-0.0002
-0.0002
-0.0002
-0.0002
-0.0002
-0.0002
-0.0002
-0.0002
-0.0002
-0.0002
-0.0002
-0.0002
-0.0002
-0.0002
-0.0002
-0.0002
-0.0002
-0.0002
-0.0002
-0.0002
-0.0002
-0.0002
-0.0002
-0.0002
-0.0002
-0.0002
-0.0002
-0.0002
-0.0002
-0.0002
-0.0002
-0.0002
-0.0002
-0.0002
-0.0002
-0.0002
-0.0002
-0.0002
-0.0002
-0.0002
-0.0002
-0.0002
-0.0002
-0.0002
-0.0002
-0.0002
-0.0002
-0.0002
-0.0002
-0.0002
-0.0002
-0.0002
-0.0002
-0.0002
-0.0002
-0.0002
-0.0002
-0.0002
-0.0002
-0.0002
-0.0002
-0.0002
-0.0002
-0.0002
-0.0002
-0.0002
-0.0002
-0.0002
-0.0002
-0.0002
-0.0002
-0.0002
-0.0002
-0.0002
-0.0002
-0.0002
-0.0002
-0.0002
-0.0002
-0.0002
-0.0002
-0.0002
-0.0002
-0.0002
-0.0002
-0.0002
-0.0002
-0.0002
-0.0002
-0.0002
-0.0002
-0.0002
-0.0002
-0.0002
-0.0002
-0.0002
-0.0002
-0.0002
-0.0002
-0.0002
-0.0002
-0.0002
-0.0002
-0.0002
-0.0002
-0.0002
-0.0002
-0.0002
-0.0002
-0.0002
-0.0002
-0.0002
-0.0002
SCALARS strain_1 float
LOOKUP_TABLE default
-0.000067
-0.105786
-0.104186
-0.102579
-0.100963
-0.099341
-0.097711
-0.096075
-0.094432
-0.092784
-0.091131
-0.089473
-0.087810
-0.086144
-0.084474
-0.082802
-0.081127
-0.079450
-0.077772
-0.076093
-0.074414
-0.072736
-0.071059
-0.069383
-0.067711
-0.066041
-0.064375
-0.062713
-0.061057
-0.059407
-0.057763
-0.056127
-0.054498
-0.052879
-0.051270
-0.049671
-0.048083
-0.046507
-0.044945
-0.043396
-0.041861
-0.040342
-0.038839
-0.037353
-0.035884
-0.034434
-0.033004
-0.031593
-0.030204
-0.028836
-0.027491
-0.026169
-0.024870
-0.023597
-0.022349
-0.021127
-0.019931
-0.018763
-0.017624
-0.016513
-0.015430
-0.014378
-0.013356
-0.012364
-0.011404
-0.010475
-0.009578
-0.008714
-0.007881
-0.007081
-0.006315
-0.005582
-0.004881
-0.004214
-0.003580
-0.002980
-0.002412
-0.001878
-0.001376
-0.000907
-0.000471
-0.105880
-0.000003
-0.000408
-0.000846
-0.001316
-0.001819
-0.002355
-0.002924
-0.003526
-0.004161
-0.004830
-0.005532
-0.006267
-0.007036
-0.007837
-0.008671
-0.009538
-0.010438
-0.011368
-0.012331
-0.013324
-0.014349
-0.015404
-0.016488
-0.017602
-0.018744
-0.019914
-0.021111
-0.022336
-0.023586
-0.024862
-0.026163
-0.027487
-0.028835
-0.030206
-0.031598
-0.033010
-0.034444
-0.035896
-0.037367
-0.038856
-0.040361
-0.041883
-0.043420
-0.044971
-0.046536
-0.048114
-0.049704
-0.051305
-0.052917
-0.054539
-0.056169
-0.057808
-0.059454
-0.061106
-0.062764
-0.064428
-0.066096
-0.067768
-0.069443
-0.071120
-0.072799
-0.074479
-0.076160
-0.077841
-0.079521
-0.081199
-0.082876
-0.084550
-0.086222
-0.087890
-0.089554
-0.091213
-0.092868
-0.094517
-0.096161
-0.097799
-0.099430
-0.101053
-0.102670
-0.104279
-0.105871
-0.105862
-0.105853
-0.105844
-0.105835
-0.105825
-0.105816
-0.105806
-0.105796
-0.000054
-0.000042
-0.000033
-0.000024
-0.000017
-0.000011
-0.000007
-0.000004
-0.000003
-0.000408
-0.000409
-0.000412
-0.000416
-0.000422
-0.000429
-0.000438
-0.000447
-0.000459
-0.000846
-0.000847
-0.000850
-0.000854
-0.000859
-0.000866
-0.000874
-0.000884
-0.000895
-0.001316
-0.001317
-0.001319
-0.001323
-0.001329
-0.001335
-0.001343
-0.001353
-0.001364
-0.001819
-0.001819
-0.001822
-0.001826
-0.001831
-0.001838
-0.001845
-0.001855
-0.001866
-0.002354
-0.002355
-0.002357
-0.002361
-0.002366
-0.002372
-0.002380
-0.002389
-0.002400
-0.002923
-0.002923
-0.002926
-0.002929
-0.002934
-0.002940
-0.002948
-0.002957
-0.002968
-0.003525
-0.003525
-0.003527
-0.003531
-0.003535
-0.003541
-0.003549
-0.003558
-0.003568
-0.004160
-0.004160
-0.004162
-0.004165
-0.004170
-0.004176
-0.004183
-0.004192
-0.004203
-0.004828
-0.004829
-0.004830
-0.004833
-0.004838
-0.004843
-0.004851
-0.004859
-0.004869
-0.005530
-0.005531
-0.005532
-0.005534
-0.005539
-0.005544
-0.005552
-0.005560
-0.005570
-0.006266
-0.006266
-0.006267
-0.006270
-0.006273
-0.006279
-0.006286
-0.006294
-0.006304
-0.007034
-0.007034
-0.007034
-0.007037
-0.007041
-0.007046
-0.007053
-0.007061
-0.007071
-0.007835
-0.007835
-0.007836
-0.007838
-0.007841
-0.007847
-0.007853
-0.007861
-0.007870
-0.008669
-0.008669
-0.008669
-0.008671
-0.008675
-0.008680
-0.008686
-0.008694
-0.008703
-0.009536
-0.009535
-0.009536
-0.009537
-0.009541
-0.009546
-0.009552
-0.009559
-0.009568
-0.010435
-0.010433
-0.010434
-0.010436
-0.010439
-0.010443
-0.010449
-0.010456
-0.010465
-0.011366
-0.011364
-0.011364
-0.011366
-0.011369
-0.011373
-0.011379
-0.011386
-0.011394
-0.012328
-0.012326
-0.012327
-0.012328
-0.012331
-0.012334
-0.012340
-0.012347
-0.012355
-0.013322
-0.013320
-0.013320
-0.013321
-0.013323
-0.013327
-0.013332
-0.013339
-0.013347
-0.014346
-0.014344
-0.014343
-0.014345
-0.014347
-0.014350
-0.014356
-0.014361
-0.014369
-0.015400
-0.015398
-0.015398
-0.015398
-0.015400
-0.015403
-0.015408
-0.015415
-0.015422
-0.016484
-0.016483
-0.016482
-0.016482
-0.016484
-0.016487
-0.016491
-0.016497
-0.016504
-0.017598
-0.017595
-0.017595
-0.017595
-0.017597
-0.017599
-0.017604
-0.017609
-0.017616
-0.018740
-0.018738
-0.018736
-0.018736
-0.018738
-0.018740
-0.018744
-0.018750
-0.018756
-0.019910
-0.019907
-0.019906
-0.019906
-0.019907
-0.019909
-0.019913
-0.019918
-0.019925
-0.021107
-0.021105
-0.021103
-0.021103
-0.021104
-0.021106
-0.021109
-0.021114
-0.021120
-0.022332
-0.022329
-0.022327
-0.022327
-0.022327
-0.022329
-0.022332
-0.022337
-0.022342
-0.023582
-0.023579
-0.023577
-0.023576
-0.023577
-0.023578
-0.023581
-0.023585
-0.023590
-0.024858
-0.024854
-0.024852
-0.024851
-0.024852
-0.024853
-0.024856
-0.024860
-0.024864
-0.026159
-0.026155
-0.026153
-0.026151
-0.026151
-0.026153
-0.026155
-0.026158
-0.026163
-0.027483
-0.027479
-0.027476
-0.027475
-0.027475
-0.027476
-0.027478
-0.027481
-0.027485
-0.028831
-0.028827
-0.028824
-0.028822
-0.028822
-0.028822
-0.028824
-0.028827
-0.028831
-0.030200
-0.030196
-0.030194
-0.030192
-0.030191
-0.030191
-0.030193
-0.030196
-0.030199
-0.031592
-0.031588
-0.031585
-0.031583
-0.031582
-0.031583
-0.031584
-0.031586
-0.031589
-0.033005
-0.033001
-0.032998
-0.032995
-0.032994
-0.032994
-0.032995
-0.032997
-0.033000
-0.034438
-0.034434
-0.034430
-0.034428
-0.034426
-0.034426
-0.034426
-0.034428
-0.034431
-0.035890
-0.035886
-0.035882
-0.035880
-0.035878
-0.035877
-0.035878
-0.035879
-0.035881
-0.037361
-0.037356
-0.037352
-0.037350
-0.037348
-0.037347
-0.037347
-0.037348
-0.037350
-0.038850
-0.038845
-0.038841
-0.038838
-0.038835
-0.038834
-0.038834
-0.038835
-0.038837
-0.040355
-0.040350
-0.040346
-0.040343
-0.040340
-0.040339
-0.040338
-0.040339
-0.040340
-0.041877
-0.041872
-0.041867
-0.041864
-0.041861
-0.041859
-0.041858
-0.041859
-0.041860
-0.043413
-0.043408
-0.043403
-0.043400
-0.043397
-0.043395
-0.043394
-0.043394
-0.043394
-0.044965
-0.044959
-0.044954
-0.044951
-0.044948
-0.044945
-0.044944
-0.044943
-0.044944
-0.046530
-0.046524
-0.046519
-0.046515
-0.046512
-0.046509
-0.046508
-0.046507
-0.046507
-0.048108
-0.048102
-0.048097
-0.048093
-0.048089
-0.048086
-0.048084
-0.048084
-0.048083
-0.049698
-0.049692
-0.049687
-0.049682
-0.049678
-0.049676
-0.049673
-0.049672
-0.049671
-0.051299
-0.051293
-0.051287
-0.051283
-0.051279
-0.051276
-0.051273
-0.051271
-0.051270
-0.052911
-0.052904
-0.052899
-0.052894
-0.052890
-0.052887
-0.052884
-0.052881
-0.052880
-0.054532
-0.054526
-0.054520
-0.054515
-0.054511
-0.054507
-0.054503
-0.054502
-0.054500
-0.056162
-0.056156
-0.056150
-0.056145
-0.056140
-0.056136
-0.056133
-0.056130
-0.056128
-0.057800
-0.057794
-0.057788
-0.057783
-0.057778
-0.057773
-0.057770
-0.057767
-0.057765
-0.059446
-0.059440
-0.059433
-0.059428
-0.059423
-0.059418
-0.059415
-0.059411
-0.059409
-0.061099
-0.061092
-0.061086
-0.061080
-0.061075
-0.061070
-0.061066
-0.061062
-0.061059
-0.062757
-0.062750
-0.062744
-0.062738
-0.062732
-0.062727
-0.062723
-0.062719
-0.062716
-0.064421
-0.064413
-0.064407
-0.064401
-0.064395
-0.064390
-0.064385
-0.064382
-0.064378
-0.066089
-0.066081
-0.066075
-0.066068
-0.066063
-0.066057
-0.066053
-0.066048
-0.066044
-0.067760
-0.067753
-0.067746
-0.067740
-0.067734
-0.067728
-0.067723
-0.067718
-0.067714
-0.069435
-0.069428
-0.069421
-0.069414
-0.069408
-0.069403
-0.069397
-0.069392
-0.069387
-0.071113
-0.071105
-0.071098
-0.071091
-0.071085
-0.071079
-0.071073
-0.071068
-0.071063
-0.072791
-0.072784
-0.072776
-0.072770
-0.072763
-0.072757
-0.072751
-0.072746
-0.072740
-0.074472
-0.074464
-0.074456
-0.074449
-0.074443