# vtk DataFile Version 2.0
Generated volume Mesh
ASCII
DATASET UNSTRUCTURED_GRID
POINTS 891 float
0.005000 0.100000 0.000000
0.005000 0.000000 0.000000
0.005000 0.001250 0.000000
0.005000 0.002500 0.000000
0.005000 0.003750 0.000000
0.005000 0.005000 0.000000
0.005000 0.006250 0.000000
0.005000 0.007500 0.000000
0.005000 0.008750 0.000000
0.005000 0.010000 0.000000
0.005000 0.011250 0.000000
0.005000 0.012500 0.000000
0.005000 0.013750 0.000000
0.005000 0.015000 0.000000
0.005000 0.016250 0.000000
0.005000 0.017500 0.000000
0.005000 0.018750 0.000000
0.005000 0.020000 0.000000
0.005000 0.021250 0.000000
0.005000 0.022500 0.000000
0.005000 0.023750 0.000000
0.005000 0.025000 0.000000
0.005000 0.026250 0.000000
0.005000 0.027500 0.000000
0.005000 0.028750 0.000000
0.005000 0.030000 0.000000
0.005000 0.031250 0.000000
0.005000 0.032500 0.000000
0.005000 0.033750 0.000000
0.005000 0.035000 0.000000
0.005000 0.036250 0.000000
0.005000 0.037500 0.000000
0.005000 0.038750 0.000000
0.005000 0.040000 0.000000
0.005000 0.041250 0.000000
0.005000 0.042500 0.000000
0.005000 0.043750 0.000000
0.005000 0.045000 0.000000
0.005000 0.046250 0.000000
0.005000 0.047500 0.000000
0.005000 0.048750 0.000000
0.005000 0.050000 0.000000
0.005000 0.051250 0.000000
0.005000 0.052500 0.000000
0.005000 0.053750 0.000000
0.005000 0.055000 0.000000
0.005000 0.056250 0.000000
0.005000 0.057500 0.000000
0.005000 0.058750 0.000000
0.005000 0.060000 0.000000
0.005000 0.061250 0.000000
0.005000 0.062500 0.000000
0.005000 0.063750 0.000000
0.005000 0.065000 0.000000
0.005000 0.066250 0.000000
0.005000 0.067500 0.000000
0.005000 0.068750 0.000000
0.005000 0.070000 0.000000
0.005000 0.071250 0.000000
0.005000 0.072500 0.000000
0.005000 0.073750 0.000000
0.005000 0.075000 0.000000
0.005000 0.076250 0.000000
0.005000 0.077500 0.000000
0.005000 0.078750 0.000000
0.005000 0.080000 0.000000
0.005000 0.081250 0.000000
0.005000 0.082500 0.000000
0.005000 0.083750 0.000000
0.005000 0.085000 0.000000
0.005000 0.086250 0.000000
0.005000 0.087500 0.000000
0.005000 0.088750 0.000000
0.005000 0.090000 0.000000
0.005000 0.091250 0.000000
0.005000 0.092500 0.000000
0.005000 0.093750 0.000000
0.005000 0.095000 0.000000
0.005000 0.096250 0.000000
0.005000 0.097500 0.000000
0.005000 0.098750 0.000000
0.000000 0.000000 0.000000
0.000000 0.100000 0.000000
0.000000 0.098750 0.000000
0.000000 0.097500 0.000000
0.000000 0.096250 0.000000
0.000000 0.095000 0.000000
0.000000 0.093750 0.000000
0.000000 0.092500 0.000000
0.000000 0.091250 0.000000
0.000000 0.090000 0.000000
0.000000 0.088750 0.000000
0.000000 0.087500 0.000000
0.000000 0.086250 0.000000
0.000000 0.085000 0.000000
0.000000 0.083750 0.000000
0.000000 0.082500 0.000000
0.000000 0.081250 0.000000
0.000000 0.080000 0.000000
0.000000 0.078750 0.000000
0.000000 0.077500 0.000000
0.000000 0.076250 0.000000
0.000000 0.075000 0.000000
0.000000 0.073750 0.000000
0.000000 0.072500 0.000000
0.000000 0.071250 0.000000
0.000000 0.070000 0.000000
0.000000 0.068750 0.000000
0.000000 0.067500 0.000000
0.000000 0.066250 0.000000
0.000000 0.065000 0.000000
0.000000 0.063750 0.000000
0.000000 0.062500 0.000000
0.000000 0.061250 0.000000
0.000000 0.060000 0.000000
0.000000 0.058750 0.000000
0.000000 0.057500 0.000000
0.000000 0.056250 0.000000
0.000000 0.055000 0.000000
0.000000 0.053750 0.000000
0.000000 0.052500 0.000000
0.000000 0.051250 0.000000
0.000000 0.050000 0.000000
0.000000 0.048750 0.000000
0.000000 0.047500 0.000000
0.000000 0.046250 0.000000
0.000000 0.045000 0.000000
0.000000 0.043750 0.000000
0.000000 0.042500 0.000000
0.000000 0.041250 0.000000
0.000000 0.040000 0.000000
0.000000 0.038750 0.000000
0.000000 0.037500 0.000000
0.000000 0.036250 0.000000
0.000000 0.035000 0.000000
0.000000 0.033750 0.000000
0.000000 0.032500 0.000000
0.000000 0.031250 0.000000
0.000000 0.030000 0.000000
0.000000 0.028750 0.000000
0.000000 0.027500 0.000000
0.000000 0.026250 0.000000
0.000000 0.025000 0.000000
0.000000 0.023750 0.000000
0.000000 0.022500 0.000000
0.000000 0.021250 0.000000
0.000000 0.020000 0.000000
0.000000 0.018750 0.000000
0.000000 0.017500 0.000000
0.000000 0.016250 0.000000
0.000000 0.015000 0.000000
0.000000 0.013750 0.000000
0.000000 0.012500 0.000000
0.000000 0.011250 0.000000
0.000000 0.010000 0.000000
0.000000 0.008750 0.000000
0.000000 0.007500 0.000000
0.000000 0.006250 0.000000
0.000000 0.005000 0.000000
0.000000 0.003750 0.000000
0.000000 0.002500 0.000000
0.000000 0.001250 0.000000
0.000500 0.000000 0.000000
0.001000 0.000000 0.000000
0.001500 0.000000 0.000000
0.002000 0.000000 0.000000
0.002500 0.000000 0.000000
0.003000 0.000000 0.000000
0.003500 0.000000 0.000000
0.004000 0.000000 0.000000
0.004500 0.000000 0.000000
0.004500 0.100000 0.000000
0.004000 0.100000 0.000000
0.003500 0.100000 0.000000
0.003000 0.100000 0.000000
0.002500 0.100000 0.000000
0.002000 0.100000 0.000000
0.001500 0.100000 0.000000
0.001000 0.100000 0.000000
0.000500 0.100000 0.000000
0.000500 0.098750 0.000000
0.001000 0.098750 0.000000
0.001500 0.098750 0.000000
0.002000 0.098750 0.000000
0.002500 0.098750 0.000000
0.003000 0.098750 0.000000
0.003500 0.098750 0.000000
0.004000 0.098750 0.000000
0.004500 0.098750 0.000000
0.000500 0.097500 0.000000
0.001000 0.097500 0.000000
0.001500 0.097500 0.000000
0.002000 0.097500 0.000000
0.002500 0.097500 0.000000
0.003000 0.097500 0.000000
0.003500 0.097500 0.000000
0.004000 0.097500 0.000000
0.004500 0.097500 0.000000
0.000500 0.096250 0.000000
0.001000 0.096250 0.000000
0.001500 0.096250 0.000000
0.002000 0.096250 0.000000
0.002500 0.096250 0.000000
0.003000 0.096250 0.000000
0.003500 0.096250 0.000000
0.004000 0.096250 0.000000
0.004500 0.096250 0.000000
0.000500 0.095000 0.000000
0.001000 0.095000 0.000000
0.001500 0.095000 0.000000
0.002000 0.095000 0.000000
0.002500 0.095000 0.000000
0.003000 0.095000 0.000000
0.003500 0.095000 0.000000
0.004000 0.095000 0.000000
0.004500 0.095000 0.000000
0.000500 0.093750 0.000000
0.001000 0.093750 0.000000
0.001500 0.093750 0.000000
0.002000 0.093750 0.000000
0.002500 0.093750 0.000000
0.003000 0.093750 0.000000
0.003500 0.093750 0.000000
0.004000 0.093750 0.000000
0.004500 0.093750 0.000000
0.000500 0.092500 0.000000
0.001000 0.092500 0.000000
0.001500 0.092500 0.000000
0.002000 0.092500 0.000000
0.002500 0.092500 0.000000
0.003000 0.092500 0.000000
0.003500 0.092500 0.000000
0.004000 0.092500 0.000000
0.004500 0.092500 0.000000
0.000500 0.091250 0.000000
0.001000 0.091250 0.000000
0.001500 0.091250 0.000000
0.002000 0.091250 0.000000
0.002500 0.091250 0.000000
0.003000 0.091250 0.000000
0.003500 0.091250 0.000000
0.004000 0.091250 0.000000
0.004500 0.091250 0.000000
0.000500 0.090000 0.000000
0.001000 0.090000 0.000000
0.001500 0.090000 0.000000
0.002000 0.090000 0.000000
0.002500 0.090000 0.000000
0.003000 0.090000 0.000000
0.003500 0.090000 0.000000
0.004000 0.090000 0.000000
0.004500 0.090000 0.000000
0.000500 0.088750 0.000000
0.001000 0.088750 0.000000
0.001500 0.088750 0.000000
0.002000 0.088750 0.000000
0.002500 0.088750 0.000000
0.003000 0.088750 0.000000
0.003500 0.088750 0.000000
0.004000 0.088750 0.000000
0.004500 0.088750 0.000000
0.000500 0.087500 0.000000
0.001000 0.087500 0.000000
0.001500 0.087500 0.000000
0.002000 0.087500 0.000000
0.002500 0.087500 0.000000
0.003000 0.087500 0.000000
0.003500 0.087500 0.000000
0.004000 0.087500 0.000000
0.004500 0.087500 0.000000
0.000500 0.086250 0.000000
0.001000 0.086250 0.000000
0.001500 0.086250 0.000000
0.002000 0.086250 0.000000
0.002500 0.086250 0.000000
0.003000 0.086250 0.000000
0.003500 0.086250 0.000000
0.004000 0.086250 0.000000
0.004500 0.086250 0.000000
0.000500 0.085000 0.000000
0.001000 0.085000 0.000000
0.001500 0.085000 0.000000
0.002000 0.085000 0.000000
0.002500 0.085000 0.000000
0.003000 0.085000 0.000000
0.003500 0.085000 0.000000
0.004000 0.085000 0.000000
0.004500 0.085000 0.000000
0.000500 0.083750 0.000000
0.001000 0.083750 0.000000
0.001500 0.083750 0.000000
0.002000 0.083750 0.000000
0.002500 0.083750 0.000000
0.003000 0.083750 0.000000
0.003500 0.083750 0.000000
0.004000 0.083750 0.000000
0.004500 0.083750 0.000000
0.000500 0.082500 0.000000
0.001000 0.082500 0.000000
0.001500 0.082500 0.000000
0.002000 0.082500 0.000000
0.002500 0.082500 0.000000
0.003000 0.082500 0.000000
0.003500 0.082500 0.000000
0.004000 0.082500 0.000000
0.004500 0.082500 0.000000
0.000500 0.081250 0.000000
0.001000 0.081250 0.000000
0.001500 0.081250 0.000000
0.002000 0.081250 0.000000
0.002500 0.081250 0.000000
0.003000 0.081250 0.000000
0.003500 0.081250 0.000000
0.004000 0.081250 0.000000
0.004500 0.081250 0.000000
0.000500 0.080000 0.000000
0.001000 0.080000 0.000000
0.001500 0.080000 0.000000
0.002000 0.080000 0.000000
0.002500 0.080000 0.000000
0.003000 0.080000 0.000000
0.003500 0.080000 0.000000
0.004000 0.080000 0.000000
0.004500 0.080000 0.000000
0.000500 0.078750 0.000000
0.001000 0.078750 0.000000
0.001500 0.078750 0.000000
0.002000 0.078750 0.000000
0.002500 0.078750 0.000000
0.003000 0.078750 0.000000
0.003500 0.078750 0.000000
0.004000 0.078750 0.000000
0.004500 0.078750 0.000000
0.000500 0.077500 0.000000
0.001000 0.077500 0.000000
0.001500 0.077500 0.000000
0.002000 0.077500 0.000000
0.002500 0.077500 0.000000
0.003000 0.077500 0.000000
0.003500 0.077500 0.000000
0.004000 0.077500 0.000000
0.004500 0.077500 0.000000
0.000500 0.076250 0.000000
0.001000 0.076250 0.000000
0.001500 0.076250 0.000000
0.002000 0.076250 0.000000
0.002500 0.076250 0.000000
0.003000 0.076250 0.000000
0.003500 0.076250 0.000000
0.004000 0.076250 0.000000
0.004500 0.076250 0.000000
0.000500 0.075000 0.000000
0.001000 0.075000 0.000000
0.001500 0.075000 0.000000
0.002000 0.075000 0.000000
0.002500 0.075000 0.000000
0.003000 0.075000 0.000000
0.003500 0.075000 0.000000
0.004000 0.075000 0.000000
0.004500 0.075000 0.000000
0.000500 0.073750 0.000000
0.001000 0.073750 0.000000
0.001500 0.073750 0.000000
0.002000 0.073750 0.000000
0.002500 0.073750 0.000000
0.003000 0.073750 0.000000
[...]
POINT_DATA 891
SCALARS u1 float
LOOKUP_TABLE default
-1e-17
-4e-07
-4e-07
-4e-07
-4e-07
-4e-07
-4e-07
-4e-07
-4e-07
-4e-07
-4e-07
-4e-07
-4e-07
-4e-07
-4e-07
-4e-07
-4e-07
-4e-07
-4e-07
-4e-07
-4e-07
-4e-07
-4e-07
-4e-07
-4e-07
-4e-07
-4e-07
-4e-07
-4e-07
-4e-07
-4e-07
-4e-07
-4e-07
-4e-07
-4e-07
-4e-07
-4e-07
-4e-07
-4e-07
-4e-07
-4e-07
-4e-07
-4e-07
-4e-07
-4e-07
-4e-07
-4e-07
-4e-07
-4e-07
-4e-07
-4e-07
-4e-07
-4e-07
-4e-07
-4e-07
-4e-07
-4e-07
-4e-07
-4e-07
-4e-07
-4e-07
-4e-07
-4e-07
-4e-07
-4e-07
-4e-07
-4e-07
-4e-07
-4e-07
-4e-07
-4e-07
-4e-07
-4e-07
-4e-07
-4e-07
-4e-07
-4e-07
-4e-07
-4e-07
-4e-07
-3e-07
4e-07
1e-17
3e-07
4e-07
4e-07
4e-07
4e-07
4e-07
4e-07
4e-07
4e-07
4e-07
4e-07
4e-07
4e-07
4e-07
4e-07
4e-07
4e-07
4e-07
4e-07
4e-07
4e-07
4e-07
4e-07
4e-07
4e-07
4e-07
4e-07
4e-07
4e-07
4e-07
4e-07
4e-07
4e-07
4e-07
4e-07
4e-07
4e-07
4e-07
4e-07
4e-07
4e-07
4e-07
4e-07
4e-07
4e-07
4e-07
4e-07
4e-07
4e-07
4e-07
4e-07
4e-07
4e-07
4e-07
4e-07
4e-07
4e-07
4e-07
4e-07
4e-07
4e-07
4e-07
4e-07
4e-07
4e-07
4e-07
4e-07
4e-07
4e-07
4e-07
4e-07
4e-07
4e-07
4e-07
4e-07
4e-07
4e-07
4e-07
4e-07
3e-07
2e-07
1e-07
7e-08
2e-14
-7e-08
-1e-07
-2e-07
-3e-07
6e-17
4e-17
-3e-17
-4e-17
-3e-17
-4e-18
-2e-18
4e-17
-1e-17
2e-07
1e-07
9e-08
4e-08
2e-14
-4e-08
-9e-08
-1e-07
-2e-07
3e-07
2e-07
1e-07
7e-08
4e-14
-7e-08
-1e-07
-2e-07
-3e-07
3e-07
2e-07
1e-07
7e-08
4e-14
-7e-08
-1e-07
-2e-07
-3e-07
3e-07
2e-07
1e-07
7e-08
4e-14
-7e-08
-1e-07
-2e-07
-3e-07
3e-07
2e-07
1e-07
7e-08
4e-14
-7e-08
-1e-07
-2e-07
-3e-07
3e-07
2e-07
1e-07
7e-08
4e-14
-7e-08
-1e-07
-2e-07
-3e-07
3e-07
2e-07
1e-07
7e-08
3e-14
-7e-08
-1e-07
-2e-07
-3e-07
3e-07
2e-07
1e-07
7e-08
3e-14
-7e-08
-1e-07
-2e-07
-3e-07
3e-07
2e-07
1e-07
7e-08
3e-14
-7e-08
-1e-07
-2e-07
-3e-07
3e-07
2e-07
1e-07
7e-08
3e-14
-7e-08
-1e-07
-2e-07
-3e-07
3e-07
2e-07
1e-07
7e-08
3e-14
-7e-08
-1e-07
-2e-07
-3e-07
3e-07
2e-07
1e-07
7e-08
3e-14
-7e-08
-1e-07
-2e-07
-3e-07
3e-07
2e-07
1e-07
7e-08
2e-14
-7e-08
-1e-07
-2e-07
-3e-07
3e-07
2e-07
1e-07
7e-08
2e-14
-7e-08
-1e-07
-2e-07
-3e-07
3e-07
2e-07
1e-07
7e-08
2e-14
-7e-08
-1e-07
-2e-07
-3e-07
3e-07
2e-07
1e-07
7e-08
2e-14
-7e-08
-1e-07
-2e-07
-3e-07
3e-07
2e-07
1e-07
7e-08
2e-14
-7e-08
-1e-07
-2e-07
-3e-07
3e-07
2e-07
1e-07
7e-08
2e-14
-7e-08
-1e-07
-2e-07
-3e-07
3e-07
2e-07
1e-07
7e-08
2e-14
-7e-08
-1e-07
-2e-07
-3e-07
3e-07
2e-07
1e-07
7e-08
2e-14
-7e-08
-1e-07
-2e-07
-3e-07
3e-07
2e-07
1e-07
7e-08
2e-14
-7e-08
-1e-07
-2e-07
-3e-07
3e-07
2e-07
1e-07
7e-08
2e-14
-7e-08
-1e-07
-2e-07
-3e-07
3e-07
2e-07
1e-07
7e-08
2e-14
-7e-08
-1e-07
-2e-07
-3e-07
3e-07
2e-07
1e-07
7e-08
2e-14
-7e-08
-1e-07
-2e-07
-3e-07
3e-07
2e-07
1e-07
7e-08
2e-14
-7e-08
-1e-07
-2e-07
-3e-07
3e-07
2e-07
1e-07
7e-08
2e-14
-7e-08
-1e-07
-2e-07
-3e-07
3e-07
2e-07
1e-07
7e-08
2e-14
-7e-08
-1e-07
-2e-07
-3e-07
3e-07
2e-07
1e-07
7e-08
2e-14
-7e-08
-1e-07
-2e-07
-3e-07
3e-07
2e-07
1e-07
7e-08
2e-14
-7e-08
-1e-07
-2e-07
-3e-07
3e-07
2e-07
1e-07
7e-08
2e-14
-7e-08
-1e-07
-2e-07
-3e-07
3e-07
2e-07
1e-07
7e-08
2e-14
-7e-08
-1e-07
-2e-07
-3e-07
3e-07
2e-07
1e-07
7e-08
2e-14
-7e-08
-1e-07
-2e-07
-3e-07
3e-07
2e-07
1e-07
7e-08
2e-14
-7e-08
-1e-07
-2e-07
-3e-07
3e-07
2e-07
1e-07
7e-08
2e-14
-7e-08
-1e-07
-2e-07
-3e-07
3e-07
2e-07
1e-07
7e-08
2e-14
-7e-08
-1e-07
-2e-07
-3e-07
3e-07
2e-07
1e-07
7e-08
2e-14
-7e-08
-1e-07
-2e-07
-3e-07
3e-07
2e-07
1e-07
7e-08
2e-14
-7e-08
-1e-07
-2e-07
-3e-07
3e-07
2e-07
1e-07
7e-08
2e-14
-7e-08
-1e-07
-2e-07
-3e-07
3e-07
2e-07
1e-07
7e-08
2e-14
-7e-08
-1e-07
-2e-07
-3e-07
3e-07
2e-07
1e-07
7e-08
2e-14
-7e-08
-1e-07
-2e-07
-3e-07
3e-07
2e-07
1e-07
7e-08
2e-14
-7e-08
-1e-07
-2e-07
-3e-07
3e-07
2e-07
1e-07
7e-08
2e-14
-7e-08
-1e-07
-2e-07
-3e-07
3e-07
2e-07
1e-07
7e-08
2e-14
-7e-08
-1e-07
-2e-07
-3e-07
3e-07
2e-07
1e-07
7e-08
2e-14
-7e-08
-1e-07
-2e-07
-3e-07
3e-07
2e-07
1e-07
7e-08
2e-14
-7e-08
-1e-07
-2e-07
-3e-07
3e-07
2e-07
1e-07
7e-08
2e-14
-7e-08
-1e-07
-2e-07
-3e-07
3e-07
2e-07
1e-07
7e-08
2e-14
-7e-08
-1e-07
-2e-07
-3e-07
3e-07
2e-07
1e-07
7e-08
2e-14
-7e-08
-1e-07
-2e-07
-3e-07
3e-07
2e-07
1e-07
7e-08
2e-14
-7e-08
-1e-07
-2e-07
-3e-07
3e-07
2e-07
1e-07
7e-08
2e-14
-7e-08
-1e-07
-2e-07
-3e-07
3e-07
2e-07
1e-07
7e-08
2e-14
-7e-08
-1e-07
-2e-07
-3e-07
3e-07
2e-07
1e-07
7e-08
2e-14
-7e-08
-1e-07
-2e-07
-3e-07
3e-07
2e-07
1e-07
7e-08
2e-14
-7e-08
-1e-07
-2e-07
-3e-07
3e-07
2e-07
1e-07
7e-08
2e-14
-7e-08
-1e-07
-2e-07
-3e-07
3e-07
2e-07
1e-07
7e-08
2e-14
-7e-08
-1e-07
-2e-07
-3e-07
3e-07
2e-07
1e-07
7e-08
2e-14
-7e-08
-1e-07
-2e-07
-3e-07
3e-07
2e-07
1e-07
7e-08
2e-14
-7e-08
-1e-07
-2e-07
-3e-07
3e-07
2e-07
1e-07
7e-08
2e-14
-7e-08
-1e-07
-2e-07
-3e-07
3e-07
2e-07
1e-07
7e-08
2e-14
-7e-08
-1e-07
-2e-07
-3e-07
3e-07
2e-07
1e-07
7e-08
2e-14
-7e-08
-1e-07
-2e-07
-3e-07
3e-07
2e-07
1e-07
7e-08
2e-14
-7e-08
-1e-07
-2e-07
-3e-07
3e-07
2e-07
1e-07
7e-08
2e-14
-7e-08
-1e-07
-2e-07
-3e-07
3e-07
2e-07
1e-07
7e-08
2e-14
-7e-08
-1e-07
-2e-07
-3e-07
3e-07
2e-07
1e-07
7e-08
2e-14
-7e-08
-1e-07
-2e-07
-3e-07
3e-07
2e-07
1e-07
7e-08
2e-14
-7e-08
-1e-07
-2e-07
-3e-07
3e-07
2e-07
1e-07
7e-08
2e-14
-7e-08
-1e-07
-2e-07
-3e-07
3e-07
2e-07
1e-07
7e-08
2e-14
-7e-08
-1e-07
-2e-07
-3e-07
3e-07
2e-07
1e-07
7e-08
2e-14
-7e-08
-1e-07
-2e-07
-3e-07
3e-07
2e-07
1e-07
7e-08
2e-14
-7e-08
-1e-07
-2e-07
-3e-07
3e-07
2e-07
1e-07
7e-08
2e-14
-7e-08
-1e-07
-2e-07
-3e-07
3e-07
2e-07
1e-07
7e-08
2e-14
-7e-08
-1e-07
-2e-07
-3e-07
3e-07
2e-07
1e-07
7e-08
2e-14
-7e-08
-1e-07
-2e-07
-3e-07
3e-07
2e-07
1e-07
7e-08
2e-14
-7e-08
-1e-07
-2e-07
-3e-07
3e-07
2e-07
1e-07
7e-08
2e-14
-7e-08
-1e-07
-2e-07
-3e-07
3e-07
2e-07
1e-07
7e-08
2e-14
-7e-08
-1e-07
-2e-07
-3e-07
3e-07
2e-07
1e-07
7e-08
2e-14
-7e-08
-1e-07
-2e-07
-3e-07
3e-07
2e-07
1e-07
7e-08
2e-14
-7e-08
-1e-07
-2e-07
-3e-07
3e-07
2e-07
1e-07
7e-08
2e-14
-7e-08
-1e-07
-2e-07
-3e-07
3e-07
2e-07
1e-07
7e-08
2e-14
-7e-08
-1e-07
-2e-07
-3e-07
SCALARS u2 float
LOOKUP_TABLE default
2e-17
-0.0001
-0.0001
-0.0001
-0.0001
-0.0001
-0.0001
-0.0001
-9e-05
-9e-05
-9e-05
-9e-05
-9e-05
-9e-05
-9e-05
-9e-05
-8e-05
-8e-05
-8e-05
-8e-05
-8e-05
-8e-05
-8e-05
-8e-05
-7e-05
-7e-05
-7e-05
-7e-05
-7e-05
-7e-05
-7e-05
-6e-05
-6e-05
-6e-05
-6e-05
-6e-05
-6e-05
-6e-05
-6e-05
-5e-05
-5e-05
-5e-05
-5e-05
-5e-05
-5e-05
-5e-05
-5e-05
-4e-05
-4e-05
-4e-05
-4e-05
-4e-05
-4e-05
-4e-05
-4e-05
-3e-05
-3e-05
-3e-05
-3e-05
-3e-05
-3e-05
-3e-05
-2e-05
-2e-05
-2e-05
-2e-05
-2e-05
-2e-05
-2e-05
-2e-05
-1e-05
-1e-05
-1e-05
-1e-05
-9e-06
-8e-06
-6e-06
-5e-06
-4e-06
-3e-06
-1e-06
-0.0001
7e-17
-1e-06
-3e-06
-4e-06
-5e-06
-6e-06
-8e-06
-9e-06
-1e-05
-1e-05
-1e-05
-1e-05
-2e-05
-2e-05
-2e-05
-2e-05
-2e-05
-2e-05
-2e-05
-2e-05
-3e-05
-3e-05
-3e-05
-3e-05
-3e-05
-3e-05
-3e-05
-4e-05
-4e-05
-4e-05
-4e-05
-4e-05
-4e-05
-4e-05
-4e-05
-5e-05
-5e-05
-5e-05
-5e-05
-5e-05
-5e-05
-5e-05
-5e-05
-6e-05
-6e-05
-6e-05
-6e-05
-6e-05
-6e-05
-6e-05
-6e-05
-7e-05
-7e-05
-7e-05
-7e-05
-7e-05
-7e-05
-7e-05
-8e-05
-8e-05
-8e-05
-8e-05
-8e-05
-8e-05
-8e-05
-8e-05
-9e-05
-9e-05
-9e-05
-9e-05
-9e-05
-9e-05
-9e-05
-9e-05
-0.0001
-0.0001
-0.0001
-0.0001
-0.0001
-0.0001
-0.0001
-0.0001
-0.0001
-0.0001
-0.0001
-0.0001
-0.0001
-0.0001
-0.0001
1e-16
-3e-17
-1e-18
7e-17
3e-17
4e-17
-1e-16
-2e-17
-3e-17
-1e-06
-1e-06
-1e-06
-1e-06
-1e-06
-1e-06
-1e-06
-1e-06
-1e-06
-3e-06
-3e-06
-3e-06
-3e-06
-3e-06
-3e-06
-3e-06
-3e-06
-3e-06
-4e-06
-4e-06
-4e-06
-4e-06
-4e-06
-4e-06
-4e-06
-4e-06
-4e-06
-5e-06
-5e-06
-5e-06
-5e-06
-5e-06
-5e-06
-5e-06
-5e-06
-5e-06
-6e-06
-6e-06
-6e-06
-6e-06
-6e-06
-6e-06
-6e-06
-6e-06
-6e-06
-8e-06
-8e-06
-8e-06
-8e-06
-8e-06
-8e-06
-8e-06
-8e-06
-8e-06
-9e-06
-9e-06
-9e-06
-9e-06
-9e-06
-9e-06
-9e-06
-9e-06
-9e-06
-1e-05
-1e-05
-1e-05
-1e-05
-1e-05
-1e-05
-1e-05
-1e-05
-1e-05
-1e-05
-1e-05
-1e-05
-1e-05
-1e-05
-1e-05
-1e-05
-1e-05
-1e-05
-1e-05
-1e-05
-1e-05
-1e-05
-1e-05
-1e-05
-1e-05
-1e-05
-1e-05
-1e-05
-1e-05
-1e-05
-1e-05
-1e-05
-1e-05
-1e-05
-1e-05
-1e-05
-2e-05
-2e-05
-2e-05
-2e-05
-2e-05
-2e-05
-2e-05
-2e-05
-2e-05
-2e-05
-2e-05
-2e-05
-2e-05
-2e-05
-2e-05
-2e-05
-2e-05
-2e-05
-2e-05
-2e-05
-2e-05
-2e-05
-2e-05
-2e-05
-2e-05
-2e-05
-2e-05
-2e-05
-2e-05
-2e-05
-2e-05
-2e-05
-2e-05
-2e-05
-2e-05
-2e-05
-2e-05
-2e-05
-2e-05
-2e-05
-2e-05
-2e-05
-2e-05
-2e-05
-2e-05
-2e-05
-2e-05
-2e-05
-2e-05
-2e-05
-2e-05
-2e-05
-2e-05
-2e-05
-2e-05
-2e-05
-2e-05
-2e-05
-2e-05
-2e-05
-2e-05
-2e-05
-2e-05
-2e-05
-2e-05
-2e-05
-2e-05
-2e-05
-2e-05
-2e-05
-2e-05
-2e-05
-3e-05
-3e-05
-3e-05
-3e-05
-3e-05
-3e-05
-3e-05
-3e-05
-3e-05
-3e-05
-3e-05
-3e-05
-3e-05
-3e-05
-3e-05
-3e-05
-3e-05
-3e-05
-3e-05
-3e-05
-3e-05
-3e-05
-3e-05
-3e-05
-3e-05
-3e-05
-3e-05
-3e-05
-3e-05
-3e-05
-3e-05
-3e-05
-3e-05
-3e-05
-3e-05
-3e-05
-3e-05
-3e-05
-3e-05
-3e-05
-3e-05
-3e-05
-3e-05
-3e-05
-3e-05
-3e-05
-3e-05
-3e-05
-3e-05
-3e-05
-3e-05
-3e-05
-3e-05
-3e-05
-3e-05
-3e-05
-3e-05
-3e-05
-3e-05
-3e-05
-3e-05
-3e-05
-3e-05
-4e-05
-4e-05
-4e-05
-4e-05
-4e-05
-4e-05
-4e-05
-4e-05
-4e-05
-4e-05
-4e-05
-4e-05
-4e-05
-4e-05
-4e-05
-4e-05
-4e-05
-4e-05
-4e-05
-4e-05
-4e-05
-4e-05
-4e-05
-4e-05
-4e-05
-4e-05
-4e-05
-4e-05
-4e-05
-4e-05
-4e-05
-4e-05
-4e-05
-4e-05
-4e-05
-4e-05
-4e-05
-4e-05
-4e-05
-4e-05
-4e-05
-4e-05
-4e-05
-4e-05
-4e-05
-4e-05
-4e-05
-4e-05
-4e-05
-4e-05
-4e-05
-4e-05
-4e-05
-4e-05
-4e-05
-4e-05
-4e-05
-4e-05
-4e-05
-4e-05
-4e-05
-4e-05
-4e-05
-4e-05
-4e-05
-4e-05
-4e-05
-4e-05
-4e-05
-4e-05
-4e-05
-4e-05
-5e-05
-5e-05
-5e-05
-5e-05
-5e-05
-5e-05
-5e-05
-5e-05
-5e-05
-5e-05
-5e-05
-5e-05
-5e-05
-5e-05
-5e-05
-5e-05
-5e-05
-5e-05
-5e-05
-5e-05
-5e-05
-5e-05
-5e-05
-5e-05
-5e-05
-5e-05
-5e-05
-5e-05
-5e-05
-5e-05
-5e-05
-5e-05
-5e-05
-5e-05
-5e-05
-5e-05
-5e-05
-5e-05
-5e-05
-5e-05
-5e-05
-5e-05
-5e-05
-5e-05
-5e-05
-5e-05
-5e-05
-5e-05
-5e-05
-5e-05
-5e-05
-5e-05
-5e-05
-5e-05
-5e-05
-5e-05
-5e-05
-5e-05
-5e-05
-5e-05
-5e-05
-5e-05
-5e-05
-5e-05
-5e-05
-5e-05
-5e-05
-5e-05
-5e-05
-5e-05
-5e-05
-5e-05
-6e-05
-6e-05
-6e-05
-6e-05
-6e-05
-6e-05
-6e-05
-6e-05
-6e-05
-6e-05
-6e-05
-6e-05
-6e-05
-6e-05
-6e-05
-6e-05
-6e-05
-6e-05
-6e-05
-6e-05
-6e-05
-6e-05
-6e-05
-6e-05
-6e-05
-6e-05
-6e-05
-6e-05
-6e-05
-6e-05
-6e-05
-6e-05
-6e-05
-6e-05
-6e-05
-6e-05
-6e-05
-6e-05
-6e-05
-6e-05
-6e-05
-6e-05
-6e-05
-6e-05
-6e-05
-6e-05
-6e-05
-6e-05
-6e-05
-6e-05
-6e-05
-6e-05
-6e-05
-6e-05
-6e-05
-6e-05
-6e-05
-6e-05
-6e-05
-6e-05
-6e-05
-6e-05
-6e-05
-6e-05
-6e-05
-6e-05
-6e-05
-6e-05
-6e-05
-6e-05
-6e-05
-6e-05
-7e-05
-7e-05
-7e-05
-7e-05
-7e-05
-7e-05
-7e-05
-7e-05
-7e-05
-7e-05
-7e-05
-7e-05
-7e-05
-7e-05
-7e-05
-7e-05
-7e-05
-7e-05
-7e-05
-7e-05
-7e-05
-7e-05
-7e-05
-7e-05
-7e-05
-7e-05
-7e-05
-7e-05
-7e-05
-7e-05
-7e-05
-7e-05
-7e-05
-7e-05
-7e-05
-7e-05
-7e-05
-7e-05
-7e-05
-7e-05
-7e-05
-7e-05
-7e-05
-7e-05
-7e-05
-7e-05
-7e-05
-7e-05
-7e-05
-7e-05
-7e-05
-7e-05
-7e-05
-7e-05
-7e-05
-7e-05
-7e-05
-7e-05
-7e-05
-7e-05
-7e-05
-7e-05
-7e-05
-8e-05
-8e-05
-8e-05
-8e-05
-8e-05
-8e-05
-8e-05
-8e-05
-8e-05
-8e-05
-8e-05
-8e-05
-8e-05
-8e-05
-8e-05
-8e-05
-8e-05
-8e-05
-8e-05
-8e-05
-8e-05
-8e-05
-8e-05
-8e-05
-8e-05
-8e-05
-8e-05
-8e-05
-8e-05
-8e-05
-8e-05
-8e-05
-8e-05
-8e-05
-8e-05
-8e-05
-8e-05
-8e-05
-8e-05
-8e-05
-8e-05
-8e-05
-8e-05
-8e-05
-8e-05
-8e-05
-8e-05
-8e-05
-8e-05
-8e-05
-8e-05
-8e-05
-8e-05
-8e-05
-8e-05
-8e-05
-8e-05
-8e-05
-8e-05
-8e-05
-8e-05
-8e-05
-8e-05
-8e-05
-8e-05
-8e-05
-8e-05
-8e-05
-8e-05
-8e-05
-8e-05
-8e-05
-9e-05
-9e-05
-9e-05
-9e-05
-9e-05
-9e-05
-9e-05
-9e-05
-9e-05
-9e-05
-9e-05
-9e-05
-9e-05
-9e-05
-9e-05
-9e-05
-9e-05
-9e-05
-9e-05
-9e-05
-9e-05
-9e-05
-9e-05
-9e-05
-9e-05
-9e-05
-9e-05
-9e-05
-9e-05
-9e-05
-9e-05
-9e-05
-9e-05
-9e-05
-9e-05
-9e-05
-9e-05
-9e-05
-9e-05
-9e-05
-9e-05
-9e-05
-9e-05
-9e-05
-9e-05
-9e-05
-9e-05
-9e-05
-9e-05
-9e-05
-9e-05
-9e-05
-9e-05
-9e-05
-9e-05
-9e-05
-9e-05
-9e-05
-9e-05
-9e-05
-9e-05
-9e-05
-9e-05
-9e-05
-9e-05
-9e-05
-9e-05
-9e-05
-9e-05
-9e-05
-9e-05
-9e-05
-0.0001
-0.0001
-0.0001
-0.0001
-0.0001
-0.0001
-0.0001
-0.0001
-0.0001
-0.0001
-0.0001
-0.0001
-0.0001
-0.0001
-0.0001
-0.0001
-0.0001
-0.0001
-0.0001
-0.0001
-0.0001
-0.0001
-0.0001
-0.0001
-0.0001
-0.0001
-0.0001
-0.0001
-0.0001
-0.0001
-0.0001
-0.0001
-0.0001
-0.0001
-0.0001
-0.0001
-0.0001
-0.0001
-0.0001
-0.0001
-0.0001
-0.0001
-0.0001
-0.0001
-0.0001
-0.0001
-0.0001
-0.0001
-0.0001
-0.0001
-0.0001
-0.0001
-0.0001
-0.0001
SCALARS strain_1 float
LOOKUP_TABLE default
-0.000026
-0.042151
-0.041514
-0.040873
-0.040230
-0.039583
-0.038934
-0.038282
-0.037627
-0.036971
-0.036312
-0.035651
-0.034989
-0.034325
-0.033659
-0.032993
-0.032325
-0.031657
-0.030989
-0.030320
-0.029651
-0.028982
-0.028314
-0.027646
-0.026979
-0.026314
-0.025650
-0.024988
-0.024328
-0.023671
-0.023016
-0.022364
-0.021715
-0.021070
-0.020429
-0.019792
-0.019159
-0.018531
-0.017908
-0.017291
-0.016680
-0.016074
-0.015475
-0.014883
-0.014298
-0.013720
-0.013150
-0.012588
-0.012035
-0.011490
-0.010954
-0.010427
-0.009909
-0.009402
-0.008905
-0.008418
-0.007942
-0.007476
-0.007022
-0.006579
-0.006148
-0.005729
-0.005322
-0.004926
-0.004544
-0.004174
-0.003816
-0.003472
-0.003140
-0.002821
-0.002516
-0.002224
-0.001945
-0.001679
-0.001426
-0.001187
-0.000961
-0.000748
-0.000548
-0.000361
-0.000188
-0.042189
-0.000001
-0.000163
-0.000337
-0.000524
-0.000725
-0.000938
-0.001165
-0.001405
-0.001658
-0.001924
-0.002204
-0.002497
-0.002803
-0.003123
-0.003455
-0.003800
-0.004159
-0.004529
-0.004913
-0.005309
-0.005717
-0.006137
-0.006569
-0.007013
-0.007468
-0.007934
-0.008412
-0.008900
-0.009398
-0.009906
-0.010424
-0.010952
-0.011489
-0.012035
-0.012590
-0.013153
-0.013724
-0.014303
-0.014889
-0.015482
-0.016082
-0.016688
-0.017301
-0.017919
-0.018542
-0.019171
-0.019805
-0.020443
-0.021085
-0.021731
-0.022381
-0.023034
-0.023690
-0.024348
-0.025009
-0.025672
-0.026336
-0.027002
-0.027670
-0.028338
-0.029007
-0.029677
-0.030346
-0.031016
-0.031686
-0.032354
-0.033023
-0.033690
-0.034356
-0.035020
-0.035683
-0.036345
-0.037004
-0.037661
-0.038316
-0.038969
-0.039619
-0.040266
-0.040910
-0.041551
-0.042185
-0.042182
-0.042178
-0.042175
-0.042171
-0.042167
-0.042163
-0.042159
-0.042155
-0.000021
-0.000017
-0.000013
-0.000010
-0.000007
-0.000005
-0.000003
-0.000002
-0.000001
-0.000163
-0.000163
-0.000164
-0.000166
-0.000168
-0.000171
-0.000174
-0.000178
-0.000183
-0.000337
-0.000337
-0.000339
-0.000340
-0.000342
-0.000345
-0.000348
-0.000352
-0.000357
-0.000524
-0.000525
-0.000526
-0.000527
-0.000529
-0.000532
-0.000535
-0.000539
-0.000543
-0.000724
-0.000725
-0.000726
-0.000727
-0.000729
-0.000732
-0.000735
-0.000739
-0.000743
-0.000938
-0.000938
-0.000939
-0.000941
-0.000943
-0.000945
-0.000948
-0.000952
-0.000956
-0.001165
-0.001165
-0.001166
-0.001167
-0.001169
-0.001171
-0.001174
-0.001178
-0.001182
-0.001404
-0.001404
-0.001405
-0.001407
-0.001408
-0.001411
-0.001414
-0.001418
-0.001422
-0.001657
-0.001658
-0.001658
-0.001659
-0.001661
-0.001664
-0.001667
-0.001670
-0.001674
-0.001924
-0.001924
-0.001925
-0.001926
-0.001927
-0.001930
-0.001933
-0.001936
-0.001940
-0.002203
-0.002203
-0.002204
-0.002205
-0.002207
-0.002209
-0.002212
-0.002215
-0.002219
-0.002496
-0.002496
-0.002497
-0.002498
-0.002499
-0.002502
-0.002504
-0.002508
-0.002512
-0.002803
-0.002802
-0.002803
-0.002804
-0.002805
-0.002807
-0.002810
-0.002813
-0.002817
-0.003122
-0.003122
-0.003122
-0.003123
-0.003124
-0.003126
-0.003129
-0.003132
-0.003136
-0.003454
-0.003454
-0.003454
-0.003455
-0.003456
-0.003458
-0.003461
-0.003464
-0.003467
-0.003799
-0.003799
-0.003799
-0.003800
-0.003801
-0.003803
-0.003806
-0.003809
-0.003812
-0.004158
-0.004157
-0.004157
-0.004158
-0.004159
-0.004161
-0.004163
-0.004166
-0.004170
-0.004528
-0.004528
-0.004528
-0.004529
-0.004530
-0.004531
-0.004534
-0.004537
-0.004540
-0.004912
-0.004911
-0.004911
-0.004912
-0.004913
-0.004914
-0.004917
-0.004919
-0.004923
-0.005308
-0.005307
-0.005307
-0.005307
-0.005308
-0.005310
-0.005312
-0.005315
-0.005318
-0.005716
-0.005715
-0.005715
-0.005715
-0.005716
-0.005718
-0.005720
-0.005722
-0.005725
-0.006136
-0.006135
-0.006135
-0.006135
-0.006136
-0.006138
-0.006139
-0.006142
-0.006145
-0.006568
-0.006567
-0.006567
-0.006567
-0.006568
-0.006569
-0.006571
-0.006573
-0.006576
-0.007012
-0.007011
-0.007010
-0.007011
-0.007011
-0.007012
-0.007014
-0.007016
-0.007019
-0.007467
-0.007466
-0.007465
-0.007465
-0.007466
-0.007467
-0.007468
-0.007470
-0.007473
-0.007933
-0.007932
-0.007931
-0.007931
-0.007932
-0.007933
-0.007934
-0.007936
-0.007939
-0.008410
-0.008409
-0.008408
-0.008408
-0.008409
-0.008410
-0.008411
-0.008413
-0.008415
-0.008898
-0.008897
-0.008896
-0.008896
-0.008896
-0.008897
-0.008898
-0.008900
-0.008902
-0.009396
-0.009395
-0.009394
-0.009394
-0.009394
-0.009395
-0.009396
-0.009397
-0.009399
-0.009904
-0.009903
-0.009902
-0.009902
-0.009902
-0.009903
-0.009904
-0.009905
-0.009907
-0.010423
-0.010421
-0.010420
-0.010420
-0.010420
-0.010420
-0.010421
-0.010423
-0.010424
-0.010950
-0.010949
-0.010948
-0.010947
-0.010947
-0.010948
-0.010948
-0.010950
-0.010951
-0.011487
-0.011486
-0.011485
-0.011484
-0.011484
-0.011484
-0.011485
-0.011486
-0.011488
-0.012033
-0.012032
-0.012031
-0.012030
-0.012030
-0.012030
-0.012030
-0.012031
-0.012033
-0.012588
-0.012586
-0.012585
-0.012584
-0.012584
-0.012584
-0.012584
-0.012585
-0.012587
-0.013151
-0.013149
-0.013148
-0.013147
-0.013146
-0.013146
-0.013147
-0.013147
-0.013149
-0.013722
-0.013720
-0.013719
-0.013718
-0.013717
-0.013717
-0.013717
-0.013718
-0.013719
-0.014300
-0.014299
-0.014297
-0.014296
-0.014295
-0.014295
-0.014295
-0.014296
-0.014297
-0.014887
-0.014885
-0.014883
-0.014882
-0.014881
-0.014881
-0.014881
-0.014881
-0.014882
-0.015480
-0.015478
-0.015476
-0.015475
-0.015474
-0.015473
-0.015473
-0.015474
-0.015474
-0.016079
-0.016078
-0.016076
-0.016074
-0.016074
-0.016073
-0.016073
-0.016073
-0.016073
-0.016686
-0.016684
-0.016682
-0.016681
-0.016680
-0.016679
-0.016678
-0.016679
-0.016679
-0.017298
-0.017296
-0.017294
-0.017293
-0.017291
-0.017291
-0.017290
-0.017290
-0.017291
-0.017916
-0.017914
-0.017912
-0.017911
-0.017909
-0.017909
-0.017908
-0.017908
-0.017908
-0.018540
-0.018538
-0.018536
-0.018534
-0.018533
-0.018532
-0.018531
-0.018531
-0.018531
-0.019169
-0.019166
-0.019164
-0.019163
-0.019161
-0.019160
-0.019159
-0.019159
-0.019159
-0.019802
-0.019800
-0.019798
-0.019796
-0.019794
-0.019793
-0.019792
-0.019792
-0.019792
-0.020440
-0.020438
-0.020436
-0.020434
-0.020432
-0.020431
-0.020430
-0.020429
-0.020429
-0.021082
-0.021080
-0.021078
-0.021076
-0.021074
-0.021073
-0.021072
-0.021071
-0.021070
-0.021728
-0.021726
-0.021724
-0.021722
-0.021720
-0.021718
-0.021717
-0.021716
-0.021715
-0.022378
-0.022375
-0.022373
-0.022371
-0.022369
-0.022368
-0.022366
-0.022365
-0.022364
-0.023031
-0.023028
-0.023026
-0.023024
-0.023022
-0.023020
-0.023019
-0.023017
-0.023017
-0.023687
-0.023684
-0.023681
-0.023679
-0.023677
-0.023676
-0.023674
-0.023673
-0.023672
-0.024345
-0.024342
-0.024340
-0.024337
-0.024335
-0.024334
-0.024332
-0.024331
-0.024329
-0.025006
-0.025003
-0.025000
-0.024998
-0.024996
-0.024994
-0.024992
-0.024991
-0.024989
-0.025669
-0.025666
-0.025663
-0.025661
-0.025658
-0.025657
-0.025655
-0.025653
-0.025652
-0.026333
-0.026330
-0.026328
-0.026325
-0.026323
-0.026321
-0.026319
-0.026317
-0.026316
-0.026999
-0.026996
-0.026994
-0.026991
-0.026989
-0.026987
-0.026985
-0.026983
-0.026981
-0.027667
-0.027664
-0.027661
-0.027659
-0.027656
-0.027654
-0.027652
-0.027650
-0.027648
-0.028335
-0.028332
-0.028329
-0.028327
-0.028324
-0.028322
-0.028319
-0.028317
-0.028315
-0.029004
-0.029001
-0.028998
-0.028996
-0.028993
-0.028991
-0.028988
-0.028986
-0.028984
-0.029674
-0.029671
-0.029667
-0.029665
-0.029662
-0.029660
-0.029657
-0.029655
-0.029653
-0.030343
-0.030340
-0.030337
-0.030334
-0.030332
-0.030329
-0.030327
-0.030324
-0.030322
-0.031013
-0.031010
-0.031007
-0.031004
-0.031001
-0.030998
-0.030996
-0.030993
-0.030991
-0.031682
-0.031679
-0.031676
-0.031673
-0.031670
-0.031667
-0.031665
-0.031662
-0.031660
-0.032351
-0.032348
-0.032345
-0.032342
-0.032339
-0.032336
-0.032333
-0.032331
-0.032328
-0.033019
-0.033016
-0.033013
-0.033010
-0.033007
-0.033004
-0.033001
-0.032998
-0.032996
-0.033686
-0.033683
-0.033680
-0.033677
-0.033674
-0.033671