# vtk DataFile Version 2.0
Generated volume Mesh
ASCII
DATASET UNSTRUCTURED_GRID
POINTS 891 float
0.005000 0.100000 0.000000
0.005000 0.000000 0.000000
0.005000 0.001250 0.000000
0.005000 0.002500 0.000000
0.005000 0.003750 0.000000
0.005000 0.005000 0.000000
0.005000 0.006250 0.000000
0.005000 0.007500 0.000000
0.005000 0.008750 0.000000
0.005000 0.010000 0.000000
0.005000 0.011250 0.000000
0.005000 0.012500 0.000000
0.005000 0.013750 0.000000
0.005000 0.015000 0.000000
0.005000 0.016250 0.000000
0.005000 0.017500 0.000000
0.005000 0.018750 0.000000
0.005000 0.020000 0.000000
0.005000 0.021250 0.000000
0.005000 0.022500 0.000000
0.005000 0.023750 0.000000
0.005000 0.025000 0.000000
0.005000 0.026250 0.000000
0.005000 0.027500 0.000000
0.005000 0.028750 0.000000
0.005000 0.030000 0.000000
0.005000 0.031250 0.000000
0.005000 0.032500 0.000000
0.005000 0.033750 0.000000
0.005000 0.035000 0.000000
0.005000 0.036250 0.000000
0.005000 0.037500 0.000000
0.005000 0.038750 0.000000
0.005000 0.040000 0.000000
0.005000 0.041250 0.000000
0.005000 0.042500 0.000000
0.005000 0.043750 0.000000
0.005000 0.045000 0.000000
0.005000 0.046250 0.000000
0.005000 0.047500 0.000000
0.005000 0.048750 0.000000
0.005000 0.050000 0.000000
0.005000 0.051250 0.000000
0.005000 0.052500 0.000000
0.005000 0.053750 0.000000
0.005000 0.055000 0.000000
0.005000 0.056250 0.000000
0.005000 0.057500 0.000000
0.005000 0.058750 0.000000
0.005000 0.060000 0.000000
0.005000 0.061250 0.000000
0.005000 0.062500 0.000000
0.005000 0.063750 0.000000
0.005000 0.065000 0.000000
0.005000 0.066250 0.000000
0.005000 0.067500 0.000000
0.005000 0.068750 0.000000
0.005000 0.070000 0.000000
0.005000 0.071250 0.000000
0.005000 0.072500 0.000000
0.005000 0.073750 0.000000
0.005000 0.075000 0.000000
0.005000 0.076250 0.000000
0.005000 0.077500 0.000000
0.005000 0.078750 0.000000
0.005000 0.080000 0.000000
0.005000 0.081250 0.000000
0.005000 0.082500 0.000000
0.005000 0.083750 0.000000
0.005000 0.085000 0.000000
0.005000 0.086250 0.000000
0.005000 0.087500 0.000000
0.005000 0.088750 0.000000
0.005000 0.090000 0.000000
0.005000 0.091250 0.000000
0.005000 0.092500 0.000000
0.005000 0.093750 0.000000
0.005000 0.095000 0.000000
0.005000 0.096250 0.000000
0.005000 0.097500 0.000000
0.005000 0.098750 0.000000
0.000000 0.000000 0.000000
0.000000 0.100000 0.000000
0.000000 0.098750 0.000000
0.000000 0.097500 0.000000
0.000000 0.096250 0.000000
0.000000 0.095000 0.000000
0.000000 0.093750 0.000000
0.000000 0.092500 0.000000
0.000000 0.091250 0.000000
0.000000 0.090000 0.000000
0.000000 0.088750 0.000000
0.000000 0.087500 0.000000
0.000000 0.086250 0.000000
0.000000 0.085000 0.000000
0.000000 0.083750 0.000000
0.000000 0.082500 0.000000
0.000000 0.081250 0.000000
0.000000 0.080000 0.000000
0.000000 0.078750 0.000000
0.000000 0.077500 0.000000
0.000000 0.076250 0.000000
0.000000 0.075000 0.000000
0.000000 0.073750 0.000000
0.000000 0.072500 0.000000
0.000000 0.071250 0.000000
0.000000 0.070000 0.000000
0.000000 0.068750 0.000000
0.000000 0.067500 0.000000
0.000000 0.066250 0.000000
0.000000 0.065000 0.000000
0.000000 0.063750 0.000000
0.000000 0.062500 0.000000
0.000000 0.061250 0.000000
0.000000 0.060000 0.000000
0.000000 0.058750 0.000000
0.000000 0.057500 0.000000
0.000000 0.056250 0.000000
0.000000 0.055000 0.000000
0.000000 0.053750 0.000000
0.000000 0.052500 0.000000
0.000000 0.051250 0.000000
0.000000 0.050000 0.000000
0.000000 0.048750 0.000000
0.000000 0.047500 0.000000
0.000000 0.046250 0.000000
0.000000 0.045000 0.000000
0.000000 0.043750 0.000000
0.000000 0.042500 0.000000
0.000000 0.041250 0.000000
0.000000 0.040000 0.000000
0.000000 0.038750 0.000000
0.000000 0.037500 0.000000
0.000000 0.036250 0.000000
0.000000 0.035000 0.000000
0.000000 0.033750 0.000000
0.000000 0.032500 0.000000
0.000000 0.031250 0.000000
0.000000 0.030000 0.000000
0.000000 0.028750 0.000000
0.000000 0.027500 0.000000
0.000000 0.026250 0.000000
0.000000 0.025000 0.000000
0.000000 0.023750 0.000000
0.000000 0.022500 0.000000
0.000000 0.021250 0.000000
0.000000 0.020000 0.000000
0.000000 0.018750 0.000000
0.000000 0.017500 0.000000
0.000000 0.016250 0.000000
0.000000 0.015000 0.000000
0.000000 0.013750 0.000000
0.000000 0.012500 0.000000
0.000000 0.011250 0.000000
0.000000 0.010000 0.000000
0.000000 0.008750 0.000000
0.000000 0.007500 0.000000
0.000000 0.006250 0.000000
0.000000 0.005000 0.000000
0.000000 0.003750 0.000000
0.000000 0.002500 0.000000
0.000000 0.001250 0.000000
0.000500 0.000000 0.000000
0.001000 0.000000 0.000000
0.001500 0.000000 0.000000
0.002000 0.000000 0.000000
0.002500 0.000000 0.000000
0.003000 0.000000 0.000000
0.003500 0.000000 0.000000
0.004000 0.000000 0.000000
0.004500 0.000000 0.000000
0.004500 0.100000 0.000000
0.004000 0.100000 0.000000
0.003500 0.100000 0.000000
0.003000 0.100000 0.000000
0.002500 0.100000 0.000000
0.002000 0.100000 0.000000
0.001500 0.100000 0.000000
0.001000 0.100000 0.000000
0.000500 0.100000 0.000000
0.000500 0.098750 0.000000
0.001000 0.098750 0.000000
0.001500 0.098750 0.000000
0.002000 0.098750 0.000000
0.002500 0.098750 0.000000
0.003000 0.098750 0.000000
0.003500 0.098750 0.000000
0.004000 0.098750 0.000000
0.004500 0.098750 0.000000
0.000500 0.097500 0.000000
0.001000 0.097500 0.000000
0.001500 0.097500 0.000000
0.002000 0.097500 0.000000
0.002500 0.097500 0.000000
0.003000 0.097500 0.000000
0.003500 0.097500 0.000000
0.004000 0.097500 0.000000
0.004500 0.097500 0.000000
0.000500 0.096250 0.000000
0.001000 0.096250 0.000000
0.001500 0.096250 0.000000
0.002000 0.096250 0.000000
0.002500 0.096250 0.000000
0.003000 0.096250 0.000000
0.003500 0.096250 0.000000
0.004000 0.096250 0.000000
0.004500 0.096250 0.000000
0.000500 0.095000 0.000000
0.001000 0.095000 0.000000
0.001500 0.095000 0.000000
0.002000 0.095000 0.000000
0.002500 0.095000 0.000000
0.003000 0.095000 0.000000
0.003500 0.095000 0.000000
0.004000 0.095000 0.000000
0.004500 0.095000 0.000000
0.000500 0.093750 0.000000
0.001000 0.093750 0.000000
0.001500 0.093750 0.000000
0.002000 0.093750 0.000000
0.002500 0.093750 0.000000
0.003000 0.093750 0.000000
0.003500 0.093750 0.000000
0.004000 0.093750 0.000000
0.004500 0.093750 0.000000
0.000500 0.092500 0.000000
0.001000 0.092500 0.000000
0.001500 0.092500 0.000000
0.002000 0.092500 0.000000
0.002500 0.092500 0.000000
0.003000 0.092500 0.000000
0.003500 0.092500 0.000000
0.004000 0.092500 0.000000
0.004500 0.092500 0.000000
0.000500 0.091250 0.000000
0.001000 0.091250 0.000000
0.001500 0.091250 0.000000
0.002000 0.091250 0.000000
0.002500 0.091250 0.000000
0.003000 0.091250 0.000000
0.003500 0.091250 0.000000
0.004000 0.091250 0.000000
0.004500 0.091250 0.000000
0.000500 0.090000 0.000000
0.001000 0.090000 0.000000
0.001500 0.090000 0.000000
0.002000 0.090000 0.000000
0.002500 0.090000 0.000000
0.003000 0.090000 0.000000
0.003500 0.090000 0.000000
0.004000 0.090000 0.000000
0.004500 0.090000 0.000000
0.000500 0.088750 0.000000
0.001000 0.088750 0.000000
0.001500 0.088750 0.000000
0.002000 0.088750 0.000000
0.002500 0.088750 0.000000
0.003000 0.088750 0.000000
0.003500 0.088750 0.000000
0.004000 0.088750 0.000000
0.004500 0.088750 0.000000
0.000500 0.087500 0.000000
0.001000 0.087500 0.000000
0.001500 0.087500 0.000000
0.002000 0.087500 0.000000
0.002500 0.087500 0.000000
0.003000 0.087500 0.000000
0.003500 0.087500 0.000000
0.004000 0.087500 0.000000
0.004500 0.087500 0.000000
0.000500 0.086250 0.000000
0.001000 0.086250 0.000000
0.001500 0.086250 0.000000
0.002000 0.086250 0.000000
0.002500 0.086250 0.000000
0.003000 0.086250 0.000000
0.003500 0.086250 0.000000
0.004000 0.086250 0.000000
0.004500 0.086250 0.000000
0.000500 0.085000 0.000000
0.001000 0.085000 0.000000
0.001500 0.085000 0.000000
0.002000 0.085000 0.000000
0.002500 0.085000 0.000000
0.003000 0.085000 0.000000
0.003500 0.085000 0.000000
0.004000 0.085000 0.000000
0.004500 0.085000 0.000000
0.000500 0.083750 0.000000
0.001000 0.083750 0.000000
0.001500 0.083750 0.000000
0.002000 0.083750 0.000000
0.002500 0.083750 0.000000
0.003000 0.083750 0.000000
0.003500 0.083750 0.000000
0.004000 0.083750 0.000000
0.004500 0.083750 0.000000
0.000500 0.082500 0.000000
0.001000 0.082500 0.000000
0.001500 0.082500 0.000000
0.002000 0.082500 0.000000
0.002500 0.082500 0.000000
0.003000 0.082500 0.000000
0.003500 0.082500 0.000000
0.004000 0.082500 0.000000
0.004500 0.082500 0.000000
0.000500 0.081250 0.000000
0.001000 0.081250 0.000000
0.001500 0.081250 0.000000
0.002000 0.081250 0.000000
0.002500 0.081250 0.000000
0.003000 0.081250 0.000000
0.003500 0.081250 0.000000
0.004000 0.081250 0.000000
0.004500 0.081250 0.000000
0.000500 0.080000 0.000000
0.001000 0.080000 0.000000
0.001500 0.080000 0.000000
0.002000 0.080000 0.000000
0.002500 0.080000 0.000000
0.003000 0.080000 0.000000
0.003500 0.080000 0.000000
0.004000 0.080000 0.000000
0.004500 0.080000 0.000000
0.000500 0.078750 0.000000
0.001000 0.078750 0.000000
0.001500 0.078750 0.000000
0.002000 0.078750 0.000000
0.002500 0.078750 0.000000
0.003000 0.078750 0.000000
0.003500 0.078750 0.000000
0.004000 0.078750 0.000000
0.004500 0.078750 0.000000
0.000500 0.077500 0.000000
0.001000 0.077500 0.000000
0.001500 0.077500 0.000000
0.002000 0.077500 0.000000
0.002500 0.077500 0.000000
0.003000 0.077500 0.000000
0.003500 0.077500 0.000000
0.004000 0.077500 0.000000
0.004500 0.077500 0.000000
0.000500 0.076250 0.000000
0.001000 0.076250 0.000000
0.001500 0.076250 0.000000
0.002000 0.076250 0.000000
0.002500 0.076250 0.000000
0.003000 0.076250 0.000000
0.003500 0.076250 0.000000
0.004000 0.076250 0.000000
0.004500 0.076250 0.000000
0.000500 0.075000 0.000000
0.001000 0.075000 0.000000
0.001500 0.075000 0.000000
0.002000 0.075000 0.000000
0.002500 0.075000 0.000000
0.003000 0.075000 0.000000
0.003500 0.075000 0.000000
0.004000 0.075000 0.000000
0.004500 0.075000 0.000000
0.000500 0.073750 0.000000
0.001000 0.073750 0.000000
0.001500 0.073750 0.000000
0.002000 0.073750 0.000000
0.002500 0.073750 0.000000
0.003000 0.073750 0.000000
[...]
POINT_DATA 891
SCALARS u1 float
LOOKUP_TABLE default
3e-17
-2e-07
-2e-07
-2e-07
-2e-07
-2e-07
-2e-07
-2e-07
-2e-07
-2e-07
-2e-07
-2e-07
-2e-07
-2e-07
-2e-07
-2e-07
-2e-07
-2e-07
-2e-07
-2e-07
-2e-07
-2e-07
-2e-07
-2e-07
-2e-07
-2e-07
-2e-07
-2e-07
-2e-07
-2e-07
-2e-07
-2e-07
-2e-07
-2e-07
-2e-07
-2e-07
-2e-07
-2e-07
-2e-07
-2e-07
-2e-07
-2e-07
-2e-07
-2e-07
-2e-07
-2e-07
-2e-07
-2e-07
-2e-07
-2e-07
-2e-07
-2e-07
-2e-07
-2e-07
-2e-07
-2e-07
-2e-07
-2e-07
-2e-07
-2e-07
-2e-07
-2e-07
-2e-07
-2e-07
-2e-07
-2e-07
-2e-07
-2e-07
-2e-07
-2e-07
-2e-07
-2e-07
-2e-07
-2e-07
-2e-07
-2e-07
-2e-07
-2e-07
-2e-07
-2e-07
-1e-07
2e-07
-3e-17
1e-07
2e-07
2e-07
2e-07
2e-07
2e-07
2e-07
2e-07
2e-07
2e-07
2e-07
2e-07
2e-07
2e-07
2e-07
2e-07
2e-07
2e-07
2e-07
2e-07
2e-07
2e-07
2e-07
2e-07
2e-07
2e-07
2e-07
2e-07
2e-07
2e-07
2e-07
2e-07
2e-07
2e-07
2e-07
2e-07
2e-07
2e-07
2e-07
2e-07
2e-07
2e-07
2e-07
2e-07
2e-07
2e-07
2e-07
2e-07
2e-07
2e-07
2e-07
2e-07
2e-07
2e-07
2e-07
2e-07
2e-07
2e-07
2e-07
2e-07
2e-07
2e-07
2e-07
2e-07
2e-07
2e-07
2e-07
2e-07
2e-07
2e-07
2e-07
2e-07
2e-07
2e-07
2e-07
2e-07
2e-07
2e-07
2e-07
1e-07
1e-07
7e-08
4e-08
-6e-14
-4e-08
-7e-08
-1e-07
-1e-07
2e-18
-7e-18
-6e-17
-2e-17
1e-18
2e-17
7e-18
9e-18
7e-18
1e-07
7e-08
5e-08
2e-08
-4e-14
-2e-08
-5e-08
-7e-08
-1e-07
1e-07
1e-07
7e-08
4e-08
-4e-14
-4e-08
-7e-08
-1e-07
-1e-07
2e-07
1e-07
8e-08
4e-08
-5e-14
-4e-08
-8e-08
-1e-07
-2e-07
2e-07
1e-07
8e-08
4e-08
-5e-14
-4e-08
-8e-08
-1e-07
-2e-07
2e-07
1e-07
8e-08
4e-08
-6e-14
-4e-08
-8e-08
-1e-07
-2e-07
1e-07
1e-07
7e-08
4e-08
-6e-14
-4e-08
-7e-08
-1e-07
-1e-07
1e-07
1e-07
7e-08
4e-08
-6e-14
-4e-08
-7e-08
-1e-07
-1e-07
1e-07
1e-07
7e-08
4e-08
-6e-14
-4e-08
-7e-08
-1e-07
-1e-07
1e-07
1e-07
7e-08
4e-08
-6e-14
-4e-08
-7e-08
-1e-07
-1e-07
1e-07
1e-07
7e-08
4e-08
-6e-14
-4e-08
-7e-08
-1e-07
-1e-07
1e-07
1e-07
7e-08
4e-08
-6e-14
-4e-08
-7e-08
-1e-07
-1e-07
1e-07
1e-07
7e-08
4e-08
-6e-14
-4e-08
-7e-08
-1e-07
-1e-07
1e-07
1e-07
7e-08
4e-08
-6e-14
-4e-08
-7e-08
-1e-07
-1e-07
1e-07
1e-07
7e-08
4e-08
-6e-14
-4e-08
-7e-08
-1e-07
-1e-07
1e-07
1e-07
7e-08
4e-08
-6e-14
-4e-08
-7e-08
-1e-07
-1e-07
1e-07
1e-07
7e-08
4e-08
-6e-14
-4e-08
-7e-08
-1e-07
-1e-07
1e-07
1e-07
7e-08
4e-08
-6e-14
-4e-08
-7e-08
-1e-07
-1e-07
1e-07
1e-07
7e-08
4e-08
-6e-14
-4e-08
-7e-08
-1e-07
-1e-07
1e-07
1e-07
7e-08
4e-08
-6e-14
-4e-08
-7e-08
-1e-07
-1e-07
1e-07
1e-07
7e-08
4e-08
-6e-14
-4e-08
-7e-08
-1e-07
-1e-07
1e-07
1e-07
7e-08
4e-08
-6e-14
-4e-08
-7e-08
-1e-07
-1e-07
1e-07
1e-07
7e-08
4e-08
-6e-14
-4e-08
-7e-08
-1e-07
-1e-07
1e-07
1e-07
7e-08
4e-08
-6e-14
-4e-08
-7e-08
-1e-07
-1e-07
1e-07
1e-07
7e-08
4e-08
-6e-14
-4e-08
-7e-08
-1e-07
-1e-07
1e-07
1e-07
7e-08
4e-08
-6e-14
-4e-08
-7e-08
-1e-07
-1e-07
1e-07
1e-07
7e-08
4e-08
-6e-14
-4e-08
-7e-08
-1e-07
-1e-07
1e-07
1e-07
7e-08
4e-08
-6e-14
-4e-08
-7e-08
-1e-07
-1e-07
1e-07
1e-07
7e-08
4e-08
-6e-14
-4e-08
-7e-08
-1e-07
-1e-07
1e-07
1e-07
7e-08
4e-08
-6e-14
-4e-08
-7e-08
-1e-07
-1e-07
1e-07
1e-07
7e-08
4e-08
-6e-14
-4e-08
-7e-08
-1e-07
-1e-07
1e-07
1e-07
7e-08
4e-08
-6e-14
-4e-08
-7e-08
-1e-07
-1e-07
1e-07
1e-07
7e-08
4e-08
-6e-14
-4e-08
-7e-08
-1e-07
-1e-07
1e-07
1e-07
7e-08
4e-08
-6e-14
-4e-08
-7e-08
-1e-07
-1e-07
1e-07
1e-07
7e-08
4e-08
-6e-14
-4e-08
-7e-08
-1e-07
-1e-07
1e-07
1e-07
7e-08
4e-08
-6e-14
-4e-08
-7e-08
-1e-07
-1e-07
1e-07
1e-07
7e-08
4e-08
-6e-14
-4e-08
-7e-08
-1e-07
-1e-07
1e-07
1e-07
7e-08
4e-08
-6e-14
-4e-08
-7e-08
-1e-07
-1e-07
1e-07
1e-07
7e-08
4e-08
-6e-14
-4e-08
-7e-08
-1e-07
-1e-07
1e-07
1e-07
7e-08
4e-08
-6e-14
-4e-08
-7e-08
-1e-07
-1e-07
1e-07
1e-07
7e-08
4e-08
-6e-14
-4e-08
-7e-08
-1e-07
-1e-07
1e-07
1e-07
7e-08
4e-08
-6e-14
-4e-08
-7e-08
-1e-07
-1e-07
1e-07
1e-07
7e-08
4e-08
-6e-14
-4e-08
-7e-08
-1e-07
-1e-07
1e-07
1e-07
7e-08
4e-08
-6e-14
-4e-08
-7e-08
-1e-07
-1e-07
1e-07
1e-07
7e-08
4e-08
-6e-14
-4e-08
-7e-08
-1e-07
-1e-07
1e-07
1e-07
7e-08
4e-08
-6e-14
-4e-08
-7e-08
-1e-07
-1e-07
1e-07
1e-07
7e-08
4e-08
-6e-14
-4e-08
-7e-08
-1e-07
-1e-07
1e-07
1e-07
7e-08
4e-08
-6e-14
-4e-08
-7e-08
-1e-07
-1e-07
1e-07
1e-07
7e-08
4e-08
-6e-14
-4e-08
-7e-08
-1e-07
-1e-07
1e-07
1e-07
7e-08
4e-08
-6e-14
-4e-08
-7e-08
-1e-07
-1e-07
1e-07
1e-07
7e-08
4e-08
-6e-14
-4e-08
-7e-08
-1e-07
-1e-07
1e-07
1e-07
7e-08
4e-08
-6e-14
-4e-08
-7e-08
-1e-07
-1e-07
1e-07
1e-07
7e-08
4e-08
-6e-14
-4e-08
-7e-08
-1e-07
-1e-07
1e-07
1e-07
7e-08
4e-08
-6e-14
-4e-08
-7e-08
-1e-07
-1e-07
1e-07
1e-07
7e-08
4e-08
-6e-14
-4e-08
-7e-08
-1e-07
-1e-07
1e-07
1e-07
7e-08
4e-08
-6e-14
-4e-08
-7e-08
-1e-07
-1e-07
1e-07
1e-07
7e-08
4e-08
-6e-14
-4e-08
-7e-08
-1e-07
-1e-07
1e-07
1e-07
7e-08
4e-08
-6e-14
-4e-08
-7e-08
-1e-07
-1e-07
1e-07
1e-07
7e-08
4e-08
-6e-14
-4e-08
-7e-08
-1e-07
-1e-07
1e-07
1e-07
7e-08
4e-08
-6e-14
-4e-08
-7e-08
-1e-07
-1e-07
1e-07
1e-07
7e-08
4e-08
-6e-14
-4e-08
-7e-08
-1e-07
-1e-07
1e-07
1e-07
7e-08
4e-08
-6e-14
-4e-08
-7e-08
-1e-07
-1e-07
1e-07
1e-07
7e-08
4e-08
-6e-14
-4e-08
-7e-08
-1e-07
-1e-07
1e-07
1e-07
7e-08
4e-08
-6e-14
-4e-08
-7e-08
-1e-07
-1e-07
1e-07
1e-07
7e-08
4e-08
-6e-14
-4e-08
-7e-08
-1e-07
-1e-07
1e-07
1e-07
7e-08
4e-08
-6e-14
-4e-08
-7e-08
-1e-07
-1e-07
1e-07
1e-07
7e-08
4e-08
-6e-14
-4e-08
-7e-08
-1e-07
-1e-07
1e-07
1e-07
7e-08
4e-08
-6e-14
-4e-08
-7e-08
-1e-07
-1e-07
1e-07
1e-07
7e-08
4e-08
-6e-14
-4e-08
-7e-08
-1e-07
-1e-07
1e-07
1e-07
7e-08
4e-08
-6e-14
-4e-08
-7e-08
-1e-07
-1e-07
1e-07
1e-07
7e-08
4e-08
-6e-14
-4e-08
-7e-08
-1e-07
-1e-07
1e-07
1e-07
7e-08
4e-08
-6e-14
-4e-08
-7e-08
-1e-07
-1e-07
1e-07
1e-07
7e-08
4e-08
-6e-14
-4e-08
-7e-08
-1e-07
-1e-07
1e-07
1e-07
7e-08
4e-08
-6e-14
-4e-08
-7e-08
-1e-07
-1e-07
1e-07
1e-07
7e-08
4e-08
-6e-14
-4e-08
-7e-08
-1e-07
-1e-07
1e-07
1e-07
7e-08
4e-08
-6e-14
-4e-08
-7e-08
-1e-07
-1e-07
1e-07
1e-07
7e-08
4e-08
-6e-14
-4e-08
-7e-08
-1e-07
-1e-07
1e-07
1e-07
7e-08
4e-08
-6e-14
-4e-08
-7e-08
-1e-07
-1e-07
1e-07
1e-07
7e-08
4e-08
-6e-14
-4e-08
-7e-08
-1e-07
-1e-07
1e-07
1e-07
7e-08
4e-08
-6e-14
-4e-08
-7e-08
-1e-07
-1e-07
SCALARS u2 float
LOOKUP_TABLE default
-4e-17
-5e-05
-5e-05
-5e-05
-5e-05
-5e-05
-5e-05
-5e-05
-5e-05
-5e-05
-5e-05
-5e-05
-5e-05
-5e-05
-5e-05
-4e-05
-4e-05
-4e-05
-4e-05
-4e-05
-4e-05
-4e-05
-4e-05
-4e-05
-4e-05
-4e-05
-4e-05
-4e-05
-4e-05
-4e-05
-3e-05
-3e-05
-3e-05
-3e-05
-3e-05
-3e-05
-3e-05
-3e-05
-3e-05
-3e-05
-3e-05
-3e-05
-3e-05
-3e-05
-3e-05
-2e-05
-2e-05
-2e-05
-2e-05
-2e-05
-2e-05
-2e-05
-2e-05
-2e-05
-2e-05
-2e-05
-2e-05
-2e-05
-2e-05
-1e-05
-1e-05
-1e-05
-1e-05
-1e-05
-1e-05
-1e-05
-1e-05
-1e-05
-9e-06
-8e-06
-7e-06
-7e-06
-6e-06
-5e-06
-5e-06
-4e-06
-3e-06
-3e-06
-2e-06
-1e-06
-7e-07
-5e-05
-1e-16
-7e-07
-1e-06
-2e-06
-3e-06
-3e-06
-4e-06
-5e-06
-5e-06
-6e-06
-7e-06
-7e-06
-8e-06
-9e-06
-1e-05
-1e-05
-1e-05
-1e-05
-1e-05
-1e-05
-1e-05
-1e-05
-1e-05
-2e-05
-2e-05
-2e-05
-2e-05
-2e-05
-2e-05
-2e-05
-2e-05
-2e-05
-2e-05
-2e-05
-2e-05
-2e-05
-2e-05
-3e-05
-3e-05
-3e-05
-3e-05
-3e-05
-3e-05
-3e-05
-3e-05
-3e-05
-3e-05
-3e-05
-3e-05
-3e-05
-3e-05
-3e-05
-4e-05
-4e-05
-4e-05
-4e-05
-4e-05
-4e-05
-4e-05
-4e-05
-4e-05
-4e-05
-4e-05
-4e-05
-4e-05
-4e-05
-4e-05
-5e-05
-5e-05
-5e-05
-5e-05
-5e-05
-5e-05
-5e-05
-5e-05
-5e-05
-5e-05
-5e-05
-5e-05
-5e-05
-5e-05
-5e-05
-5e-05
-5e-05
-5e-05
-5e-05
-5e-05
-5e-05
-5e-05
-3e-17
-4e-17
4e-18
-2e-17
-3e-17
-3e-17
3e-17
-6e-17
2e-17
-7e-07
-7e-07
-7e-07
-7e-07
-7e-07
-7e-07
-7e-07
-7e-07
-7e-07
-1e-06
-1e-06
-1e-06
-1e-06
-1e-06
-1e-06
-1e-06
-1e-06
-1e-06
-2e-06
-2e-06
-2e-06
-2e-06
-2e-06
-2e-06
-2e-06
-2e-06
-2e-06
-3e-06
-3e-06
-3e-06
-3e-06
-3e-06
-3e-06
-3e-06
-3e-06
-3e-06
-3e-06
-3e-06
-3e-06
-3e-06
-3e-06
-3e-06
-3e-06
-3e-06
-3e-06
-4e-06
-4e-06
-4e-06
-4e-06
-4e-06
-4e-06
-4e-06
-4e-06
-4e-06
-5e-06
-5e-06
-5e-06
-5e-06
-5e-06
-5e-06
-5e-06
-5e-06
-5e-06
-5e-06
-5e-06
-5e-06
-5e-06
-5e-06
-5e-06
-5e-06
-5e-06
-5e-06
-6e-06
-6e-06
-6e-06
-6e-06
-6e-06
-6e-06
-6e-06
-6e-06
-6e-06
-7e-06
-7e-06
-7e-06
-7e-06
-7e-06
-7e-06
-7e-06
-7e-06
-7e-06
-7e-06
-7e-06
-7e-06
-7e-06
-7e-06
-7e-06
-7e-06
-7e-06
-7e-06
-8e-06
-8e-06
-8e-06
-8e-06
-8e-06
-8e-06
-8e-06
-8e-06
-8e-06
-9e-06
-9e-06
-9e-06
-9e-06
-9e-06
-9e-06
-9e-06
-9e-06
-9e-06
-1e-05
-1e-05
-1e-05
-1e-05
-1e-05
-1e-05
-1e-05
-1e-05
-1e-05
-1e-05
-1e-05
-1e-05
-1e-05
-1e-05
-1e-05
-1e-05
-1e-05
-1e-05
-1e-05
-1e-05
-1e-05
-1e-05
-1e-05
-1e-05
-1e-05
-1e-05
-1e-05
-1e-05
-1e-05
-1e-05
-1e-05
-1e-05
-1e-05
-1e-05
-1e-05
-1e-05
-1e-05
-1e-05
-1e-05
-1e-05
-1e-05
-1e-05
-1e-05
-1e-05
-1e-05
-1e-05
-1e-05
-1e-05
-1e-05
-1e-05
-1e-05
-1e-05
-1e-05
-1e-05
-1e-05
-1e-05
-1e-05
-1e-05
-1e-05
-1e-05
-1e-05
-1e-05
-1e-05
-1e-05
-1e-05
-1e-05
-1e-05
-1e-05
-1e-05
-1e-05
-1e-05
-1e-05
-1e-05
-1e-05
-1e-05
-1e-05
-1e-05
-1e-05
-1e-05
-1e-05
-1e-05
-2e-05
-2e-05
-2e-05
-2e-05
-2e-05
-2e-05
-2e-05
-2e-05
-2e-05
-2e-05
-2e-05
-2e-05
-2e-05
-2e-05
-2e-05
-2e-05
-2e-05
-2e-05
-2e-05
-2e-05
-2e-05
-2e-05
-2e-05
-2e-05
-2e-05
-2e-05
-2e-05
-2e-05
-2e-05
-2e-05
-2e-05
-2e-05
-2e-05
-2e-05
-2e-05
-2e-05
-2e-05
-2e-05
-2e-05
-2e-05
-2e-05
-2e-05
-2e-05
-2e-05
-2e-05
-2e-05
-2e-05
-2e-05
-2e-05
-2e-05
-2e-05
-2e-05
-2e-05
-2e-05
-2e-05
-2e-05
-2e-05
-2e-05
-2e-05
-2e-05
-2e-05
-2e-05
-2e-05
-2e-05
-2e-05
-2e-05
-2e-05
-2e-05
-2e-05
-2e-05
-2e-05
-2e-05
-2e-05
-2e-05
-2e-05
-2e-05
-2e-05
-2e-05
-2e-05
-2e-05
-2e-05
-2e-05
-2e-05
-2e-05
-2e-05
-2e-05
-2e-05
-2e-05
-2e-05
-2e-05
-2e-05
-2e-05
-2e-05
-2e-05
-2e-05
-2e-05
-2e-05
-2e-05
-2e-05
-2e-05
-2e-05
-2e-05
-2e-05
-2e-05
-2e-05
-2e-05
-2e-05
-2e-05
-2e-05
-2e-05
-2e-05
-2e-05
-2e-05
-2e-05
-2e-05
-2e-05
-2e-05
-2e-05
-2e-05
-2e-05
-2e-05
-2e-05
-2e-05
-2e-05
-2e-05
-2e-05
-3e-05
-3e-05
-3e-05
-3e-05
-3e-05
-3e-05
-3e-05
-3e-05
-3e-05
-3e-05
-3e-05
-3e-05
-3e-05
-3e-05
-3e-05
-3e-05
-3e-05
-3e-05
-3e-05
-3e-05
-3e-05
-3e-05
-3e-05
-3e-05
-3e-05
-3e-05
-3e-05
-3e-05
-3e-05
-3e-05
-3e-05
-3e-05
-3e-05
-3e-05
-3e-05
-3e-05
-3e-05
-3e-05
-3e-05
-3e-05
-3e-05
-3e-05
-3e-05
-3e-05
-3e-05
-3e-05
-3e-05
-3e-05
-3e-05
-3e-05
-3e-05
-3e-05
-3e-05
-3e-05
-3e-05
-3e-05
-3e-05
-3e-05
-3e-05
-3e-05
-3e-05
-3e-05
-3e-05
-3e-05
-3e-05
-3e-05
-3e-05
-3e-05
-3e-05
-3e-05
-3e-05
-3e-05
-3e-05
-3e-05
-3e-05
-3e-05
-3e-05
-3e-05
-3e-05
-3e-05
-3e-05
-3e-05
-3e-05
-3e-05
-3e-05
-3e-05
-3e-05
-3e-05
-3e-05
-3e-05
-3e-05
-3e-05
-3e-05
-3e-05
-3e-05
-3e-05
-3e-05
-3e-05
-3e-05
-3e-05
-3e-05
-3e-05
-3e-05
-3e-05
-3e-05
-3e-05
-3e-05
-3e-05
-3e-05
-3e-05
-3e-05
-3e-05
-3e-05
-3e-05
-3e-05
-3e-05
-3e-05
-3e-05
-3e-05
-3e-05
-3e-05
-3e-05
-3e-05
-3e-05
-3e-05
-3e-05
-3e-05
-3e-05
-3e-05
-3e-05
-3e-05
-3e-05
-3e-05
-3e-05
-3e-05
-4e-05
-4e-05
-4e-05
-4e-05
-4e-05
-4e-05
-4e-05
-4e-05
-4e-05
-4e-05
-4e-05
-4e-05
-4e-05
-4e-05
-4e-05
-4e-05
-4e-05
-4e-05
-4e-05
-4e-05
-4e-05
-4e-05
-4e-05
-4e-05
-4e-05
-4e-05
-4e-05
-4e-05
-4e-05
-4e-05
-4e-05
-4e-05
-4e-05
-4e-05
-4e-05
-4e-05
-4e-05
-4e-05
-4e-05
-4e-05
-4e-05
-4e-05
-4e-05
-4e-05
-4e-05
-4e-05
-4e-05
-4e-05
-4e-05
-4e-05
-4e-05
-4e-05
-4e-05
-4e-05
-4e-05
-4e-05
-4e-05
-4e-05
-4e-05
-4e-05
-4e-05
-4e-05
-4e-05
-4e-05
-4e-05
-4e-05
-4e-05
-4e-05
-4e-05
-4e-05
-4e-05
-4e-05
-4e-05
-4e-05
-4e-05
-4e-05
-4e-05
-4e-05
-4e-05
-4e-05
-4e-05
-4e-05
-4e-05
-4e-05
-4e-05
-4e-05
-4e-05
-4e-05
-4e-05
-4e-05
-4e-05
-4e-05
-4e-05
-4e-05
-4e-05
-4e-05
-4e-05
-4e-05
-4e-05
-4e-05
-4e-05
-4e-05
-4e-05
-4e-05
-4e-05
-4e-05
-4e-05
-4e-05
-4e-05
-4e-05
-4e-05
-4e-05
-4e-05
-4e-05
-4e-05
-4e-05
-4e-05
-4e-05
-4e-05
-4e-05
-4e-05
-4e-05
-4e-05
-4e-05
-4e-05
-4e-05
-4e-05
-4e-05
-4e-05
-4e-05
-4e-05
-4e-05
-4e-05
-4e-05
-4e-05
-5e-05
-5e-05
-5e-05
-5e-05
-5e-05
-5e-05
-5e-05
-5e-05
-5e-05
-5e-05
-5e-05
-5e-05
-5e-05
-5e-05
-5e-05
-5e-05
-5e-05
-5e-05
-5e-05
-5e-05
-5e-05
-5e-05
-5e-05
-5e-05
-5e-05
-5e-05
-5e-05
-5e-05
-5e-05
-5e-05
-5e-05
-5e-05
-5e-05
-5e-05
-5e-05
-5e-05
-5e-05
-5e-05
-5e-05
-5e-05
-5e-05
-5e-05
-5e-05
-5e-05
-5e-05
-5e-05
-5e-05
-5e-05
-5e-05
-5e-05
-5e-05
-5e-05
-5e-05
-5e-05
-5e-05
-5e-05
-5e-05
-5e-05
-5e-05
-5e-05
-5e-05
-5e-05
-5e-05
-5e-05
-5e-05
-5e-05
-5e-05
-5e-05
-5e-05
-5e-05
-5e-05
-5e-05
-5e-05
-5e-05
-5e-05
-5e-05
-5e-05
-5e-05
-5e-05
-5e-05
-5e-05
-5e-05
-5e-05
-5e-05
-5e-05
-5e-05
-5e-05
-5e-05
-5e-05
-5e-05
-5e-05
-5e-05
-5e-05
-5e-05
-5e-05
-5e-05
-5e-05
-5e-05
-5e-05
-5e-05
-5e-05
-5e-05
-5e-05
-5e-05
-5e-05
-5e-05
-5e-05
-5e-05
-5e-05
-5e-05
-5e-05
-5e-05
-5e-05
-5e-05
-5e-05
-5e-05
-5e-05
SCALARS strain_1 float
LOOKUP_TABLE default
-0.000014
-0.021814
-0.021484
-0.021153
-0.020820
-0.020485
-0.020149
-0.019811
-0.019473
-0.019133
-0.018792
-0.018450
-0.018107
-0.017764
-0.017419
-0.017074
-0.016729
-0.016383
-0.016037
-0.015691
-0.015345
-0.014999
-0.014653
-0.014307
-0.013962
-0.013618
-0.013275
-0.012932
-0.012590
-0.012250
-0.011911
-0.011574
-0.011238
-0.010904
-0.010572
-0.010242
-0.009915
-0.009590
-0.009268
-0.008949
-0.008632
-0.008319
-0.008009
-0.007702
-0.007400
-0.007101
-0.006806
-0.006515
-0.006228
-0.005946
-0.005669
-0.005396
-0.005128
-0.004866
-0.004609
-0.004356
-0.004110
-0.003869
-0.003634
-0.003405
-0.003182
-0.002965
-0.002754
-0.002550
-0.002352
-0.002160
-0.001975
-0.001797
-0.001625
-0.001460
-0.001302
-0.001151
-0.001006
-0.000869
-0.000738
-0.000614
-0.000497
-0.000387
-0.000284
-0.000187
-0.000097
-0.021833
-0.000000
-0.000084
-0.000174
-0.000271
-0.000375
-0.000486
-0.000603
-0.000727
-0.000858
-0.000996
-0.001141
-0.001292
-0.001451
-0.001616
-0.001788
-0.001967
-0.002152
-0.002344
-0.002543
-0.002748
-0.002959
-0.003176
-0.003400
-0.003630
-0.003865
-0.004106
-0.004353
-0.004606
-0.004864
-0.005127
-0.005395
-0.005668
-0.005946
-0.006229
-0.006516
-0.006807
-0.007103
-0.007402
-0.007705
-0.008012
-0.008323
-0.008637
-0.008953
-0.009273
-0.009596
-0.009922
-0.010249
-0.010580
-0.010912
-0.011246
-0.011583
-0.011920
-0.012260
-0.012601
-0.012943
-0.013286
-0.013630
-0.013974
-0.014320
-0.014666
-0.015012
-0.015358
-0.015705
-0.016051
-0.016398
-0.016744
-0.017090
-0.017435
-0.017780
-0.018124
-0.018467
-0.018809
-0.019150
-0.019490
-0.019829
-0.020167
-0.020503
-0.020838
-0.021172
-0.021503
-0.021832
-0.021830
-0.021828
-0.021826
-0.021824
-0.021822
-0.021820
-0.021818
-0.021816
-0.000011
-0.000009
-0.000007
-0.000005
-0.000004
-0.000002
-0.000001
-0.000001
-0.000001
-0.000084
-0.000084
-0.000085
-0.000086
-0.000087
-0.000088
-0.000090
-0.000092
-0.000094
-0.000174
-0.000175
-0.000175
-0.000176
-0.000177
-0.000179
-0.000180
-0.000182
-0.000185
-0.000271
-0.000272
-0.000272
-0.000273
-0.000274
-0.000275
-0.000277
-0.000279
-0.000281
-0.000375
-0.000375
-0.000376
-0.000376
-0.000378
-0.000379
-0.000381
-0.000382
-0.000385
-0.000485
-0.000486
-0.000486
-0.000487
-0.000488
-0.000489
-0.000491
-0.000493
-0.000495
-0.000603
-0.000603
-0.000603
-0.000604
-0.000605
-0.000606
-0.000608
-0.000610
-0.000612
-0.000727
-0.000727
-0.000727
-0.000728
-0.000729
-0.000730
-0.000732
-0.000734
-0.000736
-0.000858
-0.000858
-0.000858
-0.000859
-0.000860
-0.000861
-0.000863
-0.000864
-0.000867
-0.000996
-0.000996
-0.000996
-0.000997
-0.000998
-0.000999
-0.001000
-0.001002
-0.001004
-0.001140
-0.001140
-0.001141
-0.001141
-0.001142
-0.001143
-0.001145
-0.001147
-0.001149
-0.001292
-0.001292
-0.001292
-0.001293
-0.001294
-0.001295
-0.001296
-0.001298
-0.001300
-0.001450
-0.001450
-0.001451
-0.001451
-0.001452
-0.001453
-0.001454
-0.001456
-0.001458
-0.001616
-0.001615
-0.001616
-0.001616
-0.001617
-0.001618
-0.001619
-0.001621
-0.001623
-0.001788
-0.001788
-0.001788
-0.001788
-0.001789
-0.001790
-0.001791
-0.001793
-0.001795
-0.001966
-0.001966
-0.001966
-0.001967
-0.001967
-0.001968
-0.001970
-0.001971
-0.001973
-0.002152
-0.002151
-0.002152
-0.002152
-0.002153
-0.002153
-0.002155
-0.002156
-0.002158
-0.002344
-0.002343
-0.002343
-0.002344
-0.002344
-0.002345
-0.002346
-0.002348
-0.002350
-0.002542
-0.002542
-0.002542
-0.002542
-0.002543
-0.002543
-0.002545
-0.002546
-0.002548
-0.002747
-0.002747
-0.002747
-0.002747
-0.002747
-0.002748
-0.002749
-0.002751
-0.002752
-0.002958
-0.002958
-0.002958
-0.002958
-0.002958
-0.002959
-0.002960
-0.002961
-0.002963
-0.003176
-0.003175
-0.003175
-0.003175
-0.003176
-0.003176
-0.003177
-0.003179
-0.003180
-0.003399
-0.003399
-0.003399
-0.003399
-0.003399
-0.003400
-0.003401
-0.003402
-0.003403
-0.003629
-0.003628
-0.003628
-0.003628
-0.003628
-0.003629
-0.003630
-0.003631
-0.003632
-0.003864
-0.003864
-0.003864
-0.003864
-0.003864
-0.003864
-0.003865
-0.003866
-0.003868
-0.004106
-0.004105
-0.004105
-0.004105
-0.004105
-0.004105
-0.004106
-0.004107
-0.004108
-0.004352
-0.004352
-0.004352
-0.004352
-0.004352
-0.004352
-0.004353
-0.004354
-0.004355
-0.004605
-0.004604
-0.004604
-0.004604
-0.004604
-0.004604
-0.004605
-0.004606
-0.004607
-0.004863
-0.004862
-0.004862
-0.004862
-0.004862
-0.004862
-0.004863
-0.004863
-0.004864
-0.005126
-0.005125
-0.005125
-0.005124
-0.005125
-0.005125
-0.005125
-0.005126
-0.005127
-0.005394
-0.005393
-0.005393
-0.005393
-0.005393
-0.005393
-0.005393
-0.005394
-0.005395
-0.005667
-0.005666
-0.005666
-0.005666
-0.005666
-0.005666
-0.005666
-0.005667
-0.005668
-0.005945
-0.005944
-0.005944
-0.005943
-0.005943
-0.005943
-0.005944
-0.005944
-0.005945
-0.006228
-0.006227
-0.006226
-0.006226
-0.006226
-0.006226
-0.006226
-0.006227
-0.006227
-0.006515
-0.006514
-0.006513
-0.006513
-0.006512
-0.006513
-0.006513
-0.006513
-0.006514
-0.006806
-0.006805
-0.006804
-0.006804
-0.006804
-0.006804
-0.006804
-0.006804
-0.006805
-0.007101
-0.007101
-0.007100
-0.007099
-0.007099
-0.007099
-0.007099
-0.007099
-0.007100
-0.007401
-0.007400
-0.007399
-0.007399
-0.007398
-0.007398
-0.007398
-0.007398
-0.007399
-0.007704
-0.007703
-0.007702
-0.007702
-0.007701
-0.007701
-0.007701
-0.007701
-0.007702
-0.008011
-0.008010
-0.008009
-0.008009
-0.008008
-0.008008
-0.008008
-0.008008
-0.008008
-0.008322
-0.008320
-0.008320
-0.008319
-0.008318
-0.008318
-0.008318
-0.008318
-0.008318
-0.008635
-0.008634
-0.008633
-0.008633
-0.008632
-0.008632
-0.008632
-0.008632
-0.008632
-0.008952
-0.008951
-0.008950
-0.008949
-0.008949
-0.008948
-0.008948
-0.008948
-0.008948
-0.009272
-0.009271
-0.009270
-0.009269
-0.009268
-0.009268
-0.009268
-0.009268
-0.009268
-0.009595
-0.009594
-0.009593
-0.009592
-0.009591
-0.009591
-0.009590
-0.009590
-0.009590
-0.009920
-0.009919
-0.009918
-0.009917
-0.009916
-0.009916
-0.009915
-0.009915
-0.009915
-0.010248
-0.010247
-0.010246
-0.010245
-0.010244
-0.010243
-0.010243
-0.010243
-0.010243
-0.010578
-0.010577
-0.010576
-0.010575
-0.010574
-0.010573
-0.010573
-0.010572
-0.010572
-0.010911
-0.010909
-0.010908
-0.010907
-0.010906
-0.010906
-0.010905
-0.010905
-0.010904
-0.011245
-0.011244
-0.011243
-0.011241
-0.011241
-0.011240
-0.011239
-0.011239
-0.011238
-0.011581
-0.011580
-0.011579
-0.011577
-0.011577
-0.011576
-0.011575
-0.011575
-0.011574
-0.011919
-0.011918
-0.011916
-0.011915
-0.011914
-0.011913
-0.011913
-0.011912
-0.011912
-0.012258
-0.012257
-0.012256
-0.012255
-0.012253
-0.012253
-0.012252
-0.012251
-0.012251
-0.012599
-0.012598
-0.012596
-0.012595
-0.012594
-0.012593
-0.012592
-0.012592
-0.012591
-0.012941
-0.012940
-0.012938
-0.012937
-0.012936
-0.012935
-0.012934
-0.012933
-0.012933
-0.013284
-0.013283
-0.013281
-0.013280
-0.013279
-0.013278
-0.013277
-0.013276
-0.013275
-0.013628
-0.013627
-0.013625
-0.013624
-0.013623
-0.013622
-0.013621
-0.013620
-0.013619
-0.013973
-0.013971
-0.013970
-0.013969
-0.013967
-0.013966
-0.013965
-0.013964
-0.013963
-0.014318
-0.014317
-0.014315
-0.014314
-0.014313
-0.014311
-0.014310
-0.014309
-0.014308
-0.014664
-0.014662
-0.014661
-0.014660
-0.014658
-0.014657
-0.014656
-0.014655
-0.014654
-0.015010
-0.015009
-0.015007
-0.015006
-0.015004
-0.015003
-0.015002
-0.015001
-0.015000
-0.015357
-0.015355
-0.015354
-0.015352
-0.015351
-0.015349
-0.015348
-0.015347
-0.015346
-0.015703
-0.015702
-0.015700
-0.015699
-0.015697
-0.015696
-0.015695
-0.015693
-0.015692
-0.016050
-0.016048
-0.016047
-0.016045
-0.016044
-0.016042
-0.016041
-0.016040
-0.016038
-0.016396
-0.016395
-0.016393
-0.016391
-0.016390
-0.016389
-0.016387
-0.016386
-0.016384
-0.016742
-0.016741
-0.016739
-0.016737
-0.016736
-0.016734
-0.016733
-0.016732
-0.016730
-0.017088
-0.017086
-0.017085
-0.017083
-0.017082
-0.017080
-0.017079
-0.017077
-0.017076
-0.017433
-0.017432
-0.017430
-0.017428
-0.017427
-0.017425