# vtk DataFile Version 2.0
Generated volume Mesh
ASCII
DATASET UNSTRUCTURED_GRID
POINTS 891 float
0.005000 0.100000 0.000000
0.005000 0.000000 0.000000
0.005000 0.001250 0.000000
0.005000 0.002500 0.000000
0.005000 0.003750 0.000000
0.005000 0.005000 0.000000
0.005000 0.006250 0.000000
0.005000 0.007500 0.000000
0.005000 0.008750 0.000000
0.005000 0.010000 0.000000
0.005000 0.011250 0.000000
0.005000 0.012500 0.000000
0.005000 0.013750 0.000000
0.005000 0.015000 0.000000
0.005000 0.016250 0.000000
0.005000 0.017500 0.000000
0.005000 0.018750 0.000000
0.005000 0.020000 0.000000
0.005000 0.021250 0.000000
0.005000 0.022500 0.000000
0.005000 0.023750 0.000000
0.005000 0.025000 0.000000
0.005000 0.026250 0.000000
0.005000 0.027500 0.000000
0.005000 0.028750 0.000000
0.005000 0.030000 0.000000
0.005000 0.031250 0.000000
0.005000 0.032500 0.000000
0.005000 0.033750 0.000000
0.005000 0.035000 0.000000
0.005000 0.036250 0.000000
0.005000 0.037500 0.000000
0.005000 0.038750 0.000000
0.005000 0.040000 0.000000
0.005000 0.041250 0.000000
0.005000 0.042500 0.000000
0.005000 0.043750 0.000000
0.005000 0.045000 0.000000
0.005000 0.046250 0.000000
0.005000 0.047500 0.000000
0.005000 0.048750 0.000000
0.005000 0.050000 0.000000
0.005000 0.051250 0.000000
0.005000 0.052500 0.000000
0.005000 0.053750 0.000000
0.005000 0.055000 0.000000
0.005000 0.056250 0.000000
0.005000 0.057500 0.000000
0.005000 0.058750 0.000000
0.005000 0.060000 0.000000
0.005000 0.061250 0.000000
0.005000 0.062500 0.000000
0.005000 0.063750 0.000000
0.005000 0.065000 0.000000
0.005000 0.066250 0.000000
0.005000 0.067500 0.000000
0.005000 0.068750 0.000000
0.005000 0.070000 0.000000
0.005000 0.071250 0.000000
0.005000 0.072500 0.000000
0.005000 0.073750 0.000000
0.005000 0.075000 0.000000
0.005000 0.076250 0.000000
0.005000 0.077500 0.000000
0.005000 0.078750 0.000000
0.005000 0.080000 0.000000
0.005000 0.081250 0.000000
0.005000 0.082500 0.000000
0.005000 0.083750 0.000000
0.005000 0.085000 0.000000
0.005000 0.086250 0.000000
0.005000 0.087500 0.000000
0.005000 0.088750 0.000000
0.005000 0.090000 0.000000
0.005000 0.091250 0.000000
0.005000 0.092500 0.000000
0.005000 0.093750 0.000000
0.005000 0.095000 0.000000
0.005000 0.096250 0.000000
0.005000 0.097500 0.000000
0.005000 0.098750 0.000000
0.000000 0.000000 0.000000
0.000000 0.100000 0.000000
0.000000 0.098750 0.000000
0.000000 0.097500 0.000000
0.000000 0.096250 0.000000
0.000000 0.095000 0.000000
0.000000 0.093750 0.000000
0.000000 0.092500 0.000000
0.000000 0.091250 0.000000
0.000000 0.090000 0.000000
0.000000 0.088750 0.000000
0.000000 0.087500 0.000000
0.000000 0.086250 0.000000
0.000000 0.085000 0.000000
0.000000 0.083750 0.000000
0.000000 0.082500 0.000000
0.000000 0.081250 0.000000
0.000000 0.080000 0.000000
0.000000 0.078750 0.000000
0.000000 0.077500 0.000000
0.000000 0.076250 0.000000
0.000000 0.075000 0.000000
0.000000 0.073750 0.000000
0.000000 0.072500 0.000000
0.000000 0.071250 0.000000
0.000000 0.070000 0.000000
0.000000 0.068750 0.000000
0.000000 0.067500 0.000000
0.000000 0.066250 0.000000
0.000000 0.065000 0.000000
0.000000 0.063750 0.000000
0.000000 0.062500 0.000000
0.000000 0.061250 0.000000
0.000000 0.060000 0.000000
0.000000 0.058750 0.000000
0.000000 0.057500 0.000000
0.000000 0.056250 0.000000
0.000000 0.055000 0.000000
0.000000 0.053750 0.000000
0.000000 0.052500 0.000000
0.000000 0.051250 0.000000
0.000000 0.050000 0.000000
0.000000 0.048750 0.000000
0.000000 0.047500 0.000000
0.000000 0.046250 0.000000
0.000000 0.045000 0.000000
0.000000 0.043750 0.000000
0.000000 0.042500 0.000000
0.000000 0.041250 0.000000
0.000000 0.040000 0.000000
0.000000 0.038750 0.000000
0.000000 0.037500 0.000000
0.000000 0.036250 0.000000
0.000000 0.035000 0.000000
0.000000 0.033750 0.000000
0.000000 0.032500 0.000000
0.000000 0.031250 0.000000
0.000000 0.030000 0.000000
0.000000 0.028750 0.000000
0.000000 0.027500 0.000000
0.000000 0.026250 0.000000
0.000000 0.025000 0.000000
0.000000 0.023750 0.000000
0.000000 0.022500 0.000000
0.000000 0.021250 0.000000
0.000000 0.020000 0.000000
0.000000 0.018750 0.000000
0.000000 0.017500 0.000000
0.000000 0.016250 0.000000
0.000000 0.015000 0.000000
0.000000 0.013750 0.000000
0.000000 0.012500 0.000000
0.000000 0.011250 0.000000
0.000000 0.010000 0.000000
0.000000 0.008750 0.000000
0.000000 0.007500 0.000000
0.000000 0.006250 0.000000
0.000000 0.005000 0.000000
0.000000 0.003750 0.000000
0.000000 0.002500 0.000000
0.000000 0.001250 0.000000
0.000500 0.000000 0.000000
0.001000 0.000000 0.000000
0.001500 0.000000 0.000000
0.002000 0.000000 0.000000
0.002500 0.000000 0.000000
0.003000 0.000000 0.000000
0.003500 0.000000 0.000000
0.004000 0.000000 0.000000
0.004500 0.000000 0.000000
0.004500 0.100000 0.000000
0.004000 0.100000 0.000000
0.003500 0.100000 0.000000
0.003000 0.100000 0.000000
0.002500 0.100000 0.000000
0.002000 0.100000 0.000000
0.001500 0.100000 0.000000
0.001000 0.100000 0.000000
0.000500 0.100000 0.000000
0.000500 0.098750 0.000000
0.001000 0.098750 0.000000
0.001500 0.098750 0.000000
0.002000 0.098750 0.000000
0.002500 0.098750 0.000000
0.003000 0.098750 0.000000
0.003500 0.098750 0.000000
0.004000 0.098750 0.000000
0.004500 0.098750 0.000000
0.000500 0.097500 0.000000
0.001000 0.097500 0.000000
0.001500 0.097500 0.000000
0.002000 0.097500 0.000000
0.002500 0.097500 0.000000
0.003000 0.097500 0.000000
0.003500 0.097500 0.000000
0.004000 0.097500 0.000000
0.004500 0.097500 0.000000
0.000500 0.096250 0.000000
0.001000 0.096250 0.000000
0.001500 0.096250 0.000000
0.002000 0.096250 0.000000
0.002500 0.096250 0.000000
0.003000 0.096250 0.000000
0.003500 0.096250 0.000000
0.004000 0.096250 0.000000
0.004500 0.096250 0.000000
0.000500 0.095000 0.000000
0.001000 0.095000 0.000000
0.001500 0.095000 0.000000
0.002000 0.095000 0.000000
0.002500 0.095000 0.000000
0.003000 0.095000 0.000000
0.003500 0.095000 0.000000
0.004000 0.095000 0.000000
0.004500 0.095000 0.000000
0.000500 0.093750 0.000000
0.001000 0.093750 0.000000
0.001500 0.093750 0.000000
0.002000 0.093750 0.000000
0.002500 0.093750 0.000000
0.003000 0.093750 0.000000
0.003500 0.093750 0.000000
0.004000 0.093750 0.000000
0.004500 0.093750 0.000000
0.000500 0.092500 0.000000
0.001000 0.092500 0.000000
0.001500 0.092500 0.000000
0.002000 0.092500 0.000000
0.002500 0.092500 0.000000
0.003000 0.092500 0.000000
0.003500 0.092500 0.000000
0.004000 0.092500 0.000000
0.004500 0.092500 0.000000
0.000500 0.091250 0.000000
0.001000 0.091250 0.000000
0.001500 0.091250 0.000000
0.002000 0.091250 0.000000
0.002500 0.091250 0.000000
0.003000 0.091250 0.000000
0.003500 0.091250 0.000000
0.004000 0.091250 0.000000
0.004500 0.091250 0.000000
0.000500 0.090000 0.000000
0.001000 0.090000 0.000000
0.001500 0.090000 0.000000
0.002000 0.090000 0.000000
0.002500 0.090000 0.000000
0.003000 0.090000 0.000000
0.003500 0.090000 0.000000
0.004000 0.090000 0.000000
0.004500 0.090000 0.000000
0.000500 0.088750 0.000000
0.001000 0.088750 0.000000
0.001500 0.088750 0.000000
0.002000 0.088750 0.000000
0.002500 0.088750 0.000000
0.003000 0.088750 0.000000
0.003500 0.088750 0.000000
0.004000 0.088750 0.000000
0.004500 0.088750 0.000000
0.000500 0.087500 0.000000
0.001000 0.087500 0.000000
0.001500 0.087500 0.000000
0.002000 0.087500 0.000000
0.002500 0.087500 0.000000
0.003000 0.087500 0.000000
0.003500 0.087500 0.000000
0.004000 0.087500 0.000000
0.004500 0.087500 0.000000
0.000500 0.086250 0.000000
0.001000 0.086250 0.000000
0.001500 0.086250 0.000000
0.002000 0.086250 0.000000
0.002500 0.086250 0.000000
0.003000 0.086250 0.000000
0.003500 0.086250 0.000000
0.004000 0.086250 0.000000
0.004500 0.086250 0.000000
0.000500 0.085000 0.000000
0.001000 0.085000 0.000000
0.001500 0.085000 0.000000
0.002000 0.085000 0.000000
0.002500 0.085000 0.000000
0.003000 0.085000 0.000000
0.003500 0.085000 0.000000
0.004000 0.085000 0.000000
0.004500 0.085000 0.000000
0.000500 0.083750 0.000000
0.001000 0.083750 0.000000
0.001500 0.083750 0.000000
0.002000 0.083750 0.000000
0.002500 0.083750 0.000000
0.003000 0.083750 0.000000
0.003500 0.083750 0.000000
0.004000 0.083750 0.000000
0.004500 0.083750 0.000000
0.000500 0.082500 0.000000
0.001000 0.082500 0.000000
0.001500 0.082500 0.000000
0.002000 0.082500 0.000000
0.002500 0.082500 0.000000
0.003000 0.082500 0.000000
0.003500 0.082500 0.000000
0.004000 0.082500 0.000000
0.004500 0.082500 0.000000
0.000500 0.081250 0.000000
0.001000 0.081250 0.000000
0.001500 0.081250 0.000000
0.002000 0.081250 0.000000
0.002500 0.081250 0.000000
0.003000 0.081250 0.000000
0.003500 0.081250 0.000000
0.004000 0.081250 0.000000
0.004500 0.081250 0.000000
0.000500 0.080000 0.000000
0.001000 0.080000 0.000000
0.001500 0.080000 0.000000
0.002000 0.080000 0.000000
0.002500 0.080000 0.000000
0.003000 0.080000 0.000000
0.003500 0.080000 0.000000
0.004000 0.080000 0.000000
0.004500 0.080000 0.000000
0.000500 0.078750 0.000000
0.001000 0.078750 0.000000
0.001500 0.078750 0.000000
0.002000 0.078750 0.000000
0.002500 0.078750 0.000000
0.003000 0.078750 0.000000
0.003500 0.078750 0.000000
0.004000 0.078750 0.000000
0.004500 0.078750 0.000000
0.000500 0.077500 0.000000
0.001000 0.077500 0.000000
0.001500 0.077500 0.000000
0.002000 0.077500 0.000000
0.002500 0.077500 0.000000
0.003000 0.077500 0.000000
0.003500 0.077500 0.000000
0.004000 0.077500 0.000000
0.004500 0.077500 0.000000
0.000500 0.076250 0.000000
0.001000 0.076250 0.000000
0.001500 0.076250 0.000000
0.002000 0.076250 0.000000
0.002500 0.076250 0.000000
0.003000 0.076250 0.000000
0.003500 0.076250 0.000000
0.004000 0.076250 0.000000
0.004500 0.076250 0.000000
0.000500 0.075000 0.000000
0.001000 0.075000 0.000000
0.001500 0.075000 0.000000
0.002000 0.075000 0.000000
0.002500 0.075000 0.000000
0.003000 0.075000 0.000000
0.003500 0.075000 0.000000
0.004000 0.075000 0.000000
0.004500 0.075000 0.000000
0.000500 0.073750 0.000000
0.001000 0.073750 0.000000
0.001500 0.073750 0.000000
0.002000 0.073750 0.000000
0.002500 0.073750 0.000000
0.003000 0.073750 0.000000
[...]
POINT_DATA 891
SCALARS u1 float
LOOKUP_TABLE default
-9e-16
-4e-06
-4e-06
-4e-06
-4e-06
-4e-06
-4e-06
-4e-06
-4e-06
-4e-06
-4e-06
-4e-06
-4e-06
-4e-06
-4e-06
-4e-06
-4e-06
-4e-06
-4e-06
-4e-06
-4e-06
-4e-06
-4e-06
-4e-06
-4e-06
-4e-06
-4e-06
-4e-06
-4e-06
-4e-06
-4e-06
-4e-06
-4e-06
-4e-06
-4e-06
-4e-06
-4e-06
-4e-06
-4e-06
-4e-06
-4e-06
-4e-06
-4e-06
-4e-06
-4e-06
-4e-06
-4e-06
-4e-06
-4e-06
-4e-06
-4e-06
-4e-06
-4e-06
-4e-06
-4e-06
-4e-06
-4e-06
-4e-06
-4e-06
-4e-06
-4e-06
-4e-06
-4e-06
-4e-06
-4e-06
-4e-06
-4e-06
-4e-06
-4e-06
-4e-06
-4e-06
-4e-06
-4e-06
-4e-06
-4e-06
-4e-06
-4e-06
-4e-06
-4e-06
-3e-06
-3e-06
4e-06
2e-15
3e-06
3e-06
4e-06
4e-06
4e-06
4e-06
4e-06
4e-06
4e-06
4e-06
4e-06
4e-06
4e-06
4e-06
4e-06
4e-06
4e-06
4e-06
4e-06
4e-06
4e-06
4e-06
4e-06
4e-06
4e-06
4e-06
4e-06
4e-06
4e-06
4e-06
4e-06
4e-06
4e-06
4e-06
4e-06
4e-06
4e-06
4e-06
4e-06
4e-06
4e-06
4e-06
4e-06
4e-06
4e-06
4e-06
4e-06
4e-06
4e-06
4e-06
4e-06
4e-06
4e-06
4e-06
4e-06
4e-06
4e-06
4e-06
4e-06
4e-06
4e-06
4e-06
4e-06
4e-06
4e-06
4e-06
4e-06
4e-06
4e-06
4e-06
4e-06
4e-06
4e-06
4e-06
4e-06
4e-06
4e-06
4e-06
4e-06
3e-06
2e-06
1e-06
7e-07
4e-15
-7e-07
-1e-06
-2e-06
-3e-06
2e-15
-9e-16
6e-16
7e-16
1e-16
-2e-16
4e-16
-1e-15
-2e-16
2e-06
1e-06
9e-07
4e-07
-3e-15
-4e-07
-9e-07
-1e-06
-2e-06
3e-06
2e-06
1e-06
7e-07
4e-15
-7e-07
-1e-06
-2e-06
-3e-06
3e-06
2e-06
2e-06
8e-07
3e-15
-8e-07
-2e-06
-2e-06
-3e-06
3e-06
2e-06
1e-06
7e-07
3e-15
-7e-07
-1e-06
-2e-06
-3e-06
3e-06
2e-06
1e-06
7e-07
3e-15
-7e-07
-1e-06
-2e-06
-3e-06
3e-06
2e-06
1e-06
7e-07
3e-15
-7e-07
-1e-06
-2e-06
-3e-06
3e-06
2e-06
1e-06
7e-07
3e-15
-7e-07
-1e-06
-2e-06
-3e-06
3e-06
2e-06
1e-06
7e-07
4e-15
-7e-07
-1e-06
-2e-06
-3e-06
3e-06
2e-06
1e-06
7e-07
5e-15
-7e-07
-1e-06
-2e-06
-3e-06
3e-06
2e-06
1e-06
7e-07
6e-15
-7e-07
-1e-06
-2e-06
-3e-06
3e-06
2e-06
1e-06
7e-07
7e-15
-7e-07
-1e-06
-2e-06
-3e-06
3e-06
2e-06
1e-06
7e-07
7e-15
-7e-07
-1e-06
-2e-06
-3e-06
3e-06
2e-06
1e-06
7e-07
8e-15
-7e-07
-1e-06
-2e-06
-3e-06
3e-06
2e-06
1e-06
7e-07
8e-15
-7e-07
-1e-06
-2e-06
-3e-06
3e-06
2e-06
1e-06
7e-07
9e-15
-7e-07
-1e-06
-2e-06
-3e-06
3e-06
2e-06
1e-06
7e-07
9e-15
-7e-07
-1e-06
-2e-06
-3e-06
3e-06
2e-06
1e-06
7e-07
9e-15
-7e-07
-1e-06
-2e-06
-3e-06
3e-06
2e-06
1e-06
7e-07
9e-15
-7e-07
-1e-06
-2e-06
-3e-06
3e-06
2e-06
1e-06
7e-07
9e-15
-7e-07
-1e-06
-2e-06
-3e-06
3e-06
2e-06
1e-06
7e-07
8e-15
-7e-07
-1e-06
-2e-06
-3e-06
3e-06
2e-06
1e-06
7e-07
8e-15
-7e-07
-1e-06
-2e-06
-3e-06
3e-06
2e-06
1e-06
7e-07
8e-15
-7e-07
-1e-06
-2e-06
-3e-06
3e-06
2e-06
1e-06
7e-07
7e-15
-7e-07
-1e-06
-2e-06
-3e-06
3e-06
2e-06
1e-06
7e-07
7e-15
-7e-07
-1e-06
-2e-06
-3e-06
3e-06
2e-06
1e-06
7e-07
6e-15
-7e-07
-1e-06
-2e-06
-3e-06
3e-06
2e-06
1e-06
7e-07
6e-15
-7e-07
-1e-06
-2e-06
-3e-06
3e-06
2e-06
1e-06
7e-07
6e-15
-7e-07
-1e-06
-2e-06
-3e-06
3e-06
2e-06
1e-06
7e-07
6e-15
-7e-07
-1e-06
-2e-06
-3e-06
3e-06
2e-06
1e-06
7e-07
5e-15
-7e-07
-1e-06
-2e-06
-3e-06
3e-06
2e-06
1e-06
7e-07
5e-15
-7e-07
-1e-06
-2e-06
-3e-06
3e-06
2e-06
1e-06
7e-07
5e-15
-7e-07
-1e-06
-2e-06
-3e-06
3e-06
2e-06
1e-06
7e-07
5e-15
-7e-07
-1e-06
-2e-06
-3e-06
3e-06
2e-06
1e-06
7e-07
5e-15
-7e-07
-1e-06
-2e-06
-3e-06
3e-06
2e-06
1e-06
7e-07
4e-15
-7e-07
-1e-06
-2e-06
-3e-06
3e-06
2e-06
1e-06
7e-07
4e-15
-7e-07
-1e-06
-2e-06
-3e-06
3e-06
2e-06
1e-06
7e-07
4e-15
-7e-07
-1e-06
-2e-06
-3e-06
3e-06
2e-06
1e-06
7e-07
4e-15
-7e-07
-1e-06
-2e-06
-3e-06
3e-06
2e-06
1e-06
7e-07
4e-15
-7e-07
-1e-06
-2e-06
-3e-06
3e-06
2e-06
1e-06
7e-07
4e-15
-7e-07
-1e-06
-2e-06
-3e-06
3e-06
2e-06
1e-06
7e-07
4e-15
-7e-07
-1e-06
-2e-06
-3e-06
3e-06
2e-06
1e-06
7e-07
4e-15
-7e-07
-1e-06
-2e-06
-3e-06
3e-06
2e-06
1e-06
7e-07
4e-15
-7e-07
-1e-06
-2e-06
-3e-06
3e-06
2e-06
1e-06
7e-07
4e-15
-7e-07
-1e-06
-2e-06
-3e-06
3e-06
2e-06
1e-06
7e-07
4e-15
-7e-07
-1e-06
-2e-06
-3e-06
3e-06
2e-06
1e-06
7e-07
4e-15
-7e-07
-1e-06
-2e-06
-3e-06
3e-06
2e-06
1e-06
7e-07
4e-15
-7e-07
-1e-06
-2e-06
-3e-06
3e-06
2e-06
1e-06
7e-07
4e-15
-7e-07
-1e-06
-2e-06
-3e-06
3e-06
2e-06
1e-06
7e-07
4e-15
-7e-07
-1e-06
-2e-06
-3e-06
3e-06
2e-06
1e-06
7e-07
4e-15
-7e-07
-1e-06
-2e-06
-3e-06
3e-06
2e-06
1e-06
7e-07
4e-15
-7e-07
-1e-06
-2e-06
-3e-06
3e-06
2e-06
1e-06
7e-07
4e-15
-7e-07
-1e-06
-2e-06
-3e-06
3e-06
2e-06
1e-06
7e-07
4e-15
-7e-07
-1e-06
-2e-06
-3e-06
3e-06
2e-06
1e-06
7e-07
4e-15
-7e-07
-1e-06
-2e-06
-3e-06
3e-06
2e-06
1e-06
7e-07
4e-15
-7e-07
-1e-06
-2e-06
-3e-06
3e-06
2e-06
1e-06
7e-07
4e-15
-7e-07
-1e-06
-2e-06
-3e-06
3e-06
2e-06
1e-06
7e-07
4e-15
-7e-07
-1e-06
-2e-06
-3e-06
3e-06
2e-06
1e-06
7e-07
4e-15
-7e-07
-1e-06
-2e-06
-3e-06
3e-06
2e-06
1e-06
7e-07
4e-15
-7e-07
-1e-06
-2e-06
-3e-06
3e-06
2e-06
1e-06
7e-07
4e-15
-7e-07
-1e-06
-2e-06
-3e-06
3e-06
2e-06
1e-06
7e-07
4e-15
-7e-07
-1e-06
-2e-06
-3e-06
3e-06
2e-06
1e-06
7e-07
4e-15
-7e-07
-1e-06
-2e-06
-3e-06
3e-06
2e-06
1e-06
7e-07
4e-15
-7e-07
-1e-06
-2e-06
-3e-06
3e-06
2e-06
1e-06
7e-07
4e-15
-7e-07
-1e-06
-2e-06
-3e-06
3e-06
2e-06
1e-06
7e-07
4e-15
-7e-07
-1e-06
-2e-06
-3e-06
3e-06
2e-06
1e-06
7e-07
4e-15
-7e-07
-1e-06
-2e-06
-3e-06
3e-06
2e-06
1e-06
7e-07
4e-15
-7e-07
-1e-06
-2e-06
-3e-06
3e-06
2e-06
1e-06
7e-07
4e-15
-7e-07
-1e-06
-2e-06
-3e-06
3e-06
2e-06
1e-06
7e-07
4e-15
-7e-07
-1e-06
-2e-06
-3e-06
3e-06
2e-06
1e-06
7e-07
4e-15
-7e-07
-1e-06
-2e-06
-3e-06
3e-06
2e-06
1e-06
7e-07
4e-15
-7e-07
-1e-06
-2e-06
-3e-06
3e-06
2e-06
1e-06
7e-07
4e-15
-7e-07
-1e-06
-2e-06
-3e-06
3e-06
2e-06
1e-06
7e-07
4e-15
-7e-07
-1e-06
-2e-06
-3e-06
3e-06
2e-06
1e-06
7e-07
4e-15
-7e-07
-1e-06
-2e-06
-3e-06
3e-06
2e-06
1e-06
7e-07
4e-15
-7e-07
-1e-06
-2e-06
-3e-06
3e-06
2e-06
1e-06
7e-07
4e-15
-7e-07
-1e-06
-2e-06
-3e-06
3e-06
2e-06
1e-06
7e-07
4e-15
-7e-07
-1e-06
-2e-06
-3e-06
3e-06
2e-06
1e-06
7e-07
4e-15
-7e-07
-1e-06
-2e-06
-3e-06
3e-06
2e-06
1e-06
7e-07
4e-15
-7e-07
-1e-06
-2e-06
-3e-06
3e-06
2e-06
1e-06
7e-07
4e-15
-7e-07
-1e-06
-2e-06
-3e-06
SCALARS u2 float
LOOKUP_TABLE default
1e-15
-0.0004
-0.0004
-0.0004
-0.0004
-0.0004
-0.0004
-0.0004
-0.0004
-0.0004
-0.0004
-0.0004
-0.0003
-0.0003
-0.0003
-0.0003
-0.0003
-0.0003
-0.0003
-0.0003
-0.0003
-0.0003
-0.0003
-0.0003
-0.0003
-0.0003
-0.0003
-0.0003
-0.0003
-0.0003
-0.0003
-0.0003
-0.0002
-0.0002
-0.0002
-0.0002
-0.0002
-0.0002
-0.0002
-0.0002
-0.0002
-0.0002
-0.0002
-0.0002
-0.0002
-0.0002
-0.0002
-0.0002
-0.0002
-0.0002
-0.0002
-0.0001
-0.0001
-0.0001
-0.0001
-0.0001
-0.0001
-0.0001
-0.0001
-0.0001
-0.0001
-0.0001
-9e-05
-9e-05
-8e-05
-8e-05
-7e-05
-7e-05
-6e-05
-6e-05
-5e-05
-5e-05
-4e-05
-4e-05
-3e-05
-3e-05
-2e-05
-2e-05
-1e-05
-1e-05
-5e-06
-0.0004
8e-16
-5e-06
-1e-05
-1e-05
-2e-05
-2e-05
-3e-05
-3e-05
-4e-05
-4e-05
-5e-05
-5e-05
-6e-05
-6e-05
-7e-05
-7e-05
-8e-05
-8e-05
-9e-05
-9e-05
-0.0001
-0.0001
-0.0001
-0.0001
-0.0001
-0.0001
-0.0001
-0.0001
-0.0001
-0.0001
-0.0001
-0.0002
-0.0002
-0.0002
-0.0002
-0.0002
-0.0002
-0.0002
-0.0002
-0.0002
-0.0002
-0.0002
-0.0002
-0.0002
-0.0002
-0.0002
-0.0002
-0.0002
-0.0002
-0.0002
-0.0003
-0.0003
-0.0003
-0.0003
-0.0003
-0.0003
-0.0003
-0.0003
-0.0003
-0.0003
-0.0003
-0.0003
-0.0003
-0.0003
-0.0003
-0.0003
-0.0003
-0.0003
-0.0003
-0.0003
-0.0004
-0.0004
-0.0004
-0.0004
-0.0004
-0.0004
-0.0004
-0.0004
-0.0004
-0.0004
-0.0004
-0.0004
-0.0004
-0.0004
-0.0004
-0.0004
-0.0004
-0.0004
-0.0004
4e-16
-9e-16
-6e-17
1e-16
-3e-16
2e-17
2e-16
-1e-15
2e-15
-5e-06
-4e-06
-4e-06
-4e-06
-4e-06
-4e-06
-4e-06
-4e-06
-5e-06
-1e-05
-9e-06
-9e-06
-9e-06
-9e-06
-9e-06
-9e-06
-9e-06
-1e-05
-1e-05
-1e-05
-1e-05
-1e-05
-1e-05
-1e-05
-1e-05
-1e-05
-1e-05
-2e-05
-2e-05
-2e-05
-2e-05
-2e-05
-2e-05
-2e-05
-2e-05
-2e-05
-2e-05
-2e-05
-2e-05
-2e-05
-2e-05
-2e-05
-2e-05
-2e-05
-2e-05
-3e-05
-3e-05
-3e-05
-3e-05
-3e-05
-3e-05
-3e-05
-3e-05
-3e-05
-3e-05
-3e-05
-3e-05
-3e-05
-3e-05
-3e-05
-3e-05
-3e-05
-3e-05
-4e-05
-4e-05
-4e-05
-4e-05
-4e-05
-4e-05
-4e-05
-4e-05
-4e-05
-4e-05
-4e-05
-4e-05
-4e-05
-4e-05
-4e-05
-4e-05
-4e-05
-4e-05
-5e-05
-5e-05
-5e-05
-5e-05
-5e-05
-5e-05
-5e-05
-5e-05
-5e-05
-5e-05
-5e-05
-5e-05
-5e-05
-5e-05
-5e-05
-5e-05
-5e-05
-5e-05
-6e-05
-6e-05
-6e-05
-6e-05
-6e-05
-6e-05
-6e-05
-6e-05
-6e-05
-6e-05
-6e-05
-6e-05
-6e-05
-6e-05
-6e-05
-6e-05
-6e-05
-6e-05
-7e-05
-7e-05
-7e-05
-7e-05
-7e-05
-7e-05
-7e-05
-7e-05
-7e-05
-7e-05
-7e-05
-7e-05
-7e-05
-7e-05
-7e-05
-7e-05
-7e-05
-7e-05
-8e-05
-8e-05
-8e-05
-8e-05
-8e-05
-8e-05
-8e-05
-8e-05
-8e-05
-8e-05
-8e-05
-8e-05
-8e-05
-8e-05
-8e-05
-8e-05
-8e-05
-8e-05
-9e-05
-9e-05
-9e-05
-9e-05
-9e-05
-9e-05
-9e-05
-9e-05
-9e-05
-9e-05
-9e-05
-9e-05
-9e-05
-9e-05
-9e-05
-9e-05
-9e-05
-9e-05
-0.0001
-0.0001
-0.0001
-0.0001
-0.0001
-0.0001
-0.0001
-0.0001
-0.0001
-0.0001
-0.0001
-0.0001
-0.0001
-0.0001
-0.0001
-0.0001
-0.0001
-0.0001
-0.0001
-0.0001
-0.0001
-0.0001
-0.0001
-0.0001
-0.0001
-0.0001
-0.0001
-0.0001
-0.0001
-0.0001
-0.0001
-0.0001
-0.0001
-0.0001
-0.0001
-0.0001
-0.0001
-0.0001
-0.0001
-0.0001
-0.0001
-0.0001
-0.0001
-0.0001
-0.0001
-0.0001
-0.0001
-0.0001
-0.0001
-0.0001
-0.0001
-0.0001
-0.0001
-0.0001
-0.0001
-0.0001
-0.0001
-0.0001
-0.0001
-0.0001
-0.0001
-0.0001
-0.0001
-0.0001
-0.0001
-0.0001
-0.0001
-0.0001
-0.0001
-0.0001
-0.0001
-0.0001
-0.0001
-0.0001
-0.0001
-0.0001
-0.0001
-0.0001
-0.0001
-0.0001
-0.0001
-0.0001
-0.0001
-0.0001
-0.0001
-0.0001
-0.0001
-0.0001
-0.0001
-0.0001
-0.0001
-0.0001
-0.0001
-0.0001
-0.0001
-0.0001
-0.0001
-0.0001
-0.0001
-0.0002
-0.0002
-0.0002
-0.0002
-0.0002
-0.0002
-0.0002
-0.0002
-0.0002
-0.0002
-0.0002
-0.0002
-0.0002
-0.0002
-0.0002
-0.0002
-0.0002
-0.0002
-0.0002
-0.0002
-0.0002
-0.0002
-0.0002
-0.0002
-0.0002
-0.0002
-0.0002
-0.0002
-0.0002
-0.0002
-0.0002
-0.0002
-0.0002
-0.0002
-0.0002
-0.0002
-0.0002
-0.0002
-0.0002
-0.0002
-0.0002
-0.0002
-0.0002
-0.0002
-0.0002
-0.0002
-0.0002
-0.0002
-0.0002
-0.0002
-0.0002
-0.0002
-0.0002
-0.0002
-0.0002
-0.0002
-0.0002
-0.0002
-0.0002
-0.0002
-0.0002
-0.0002
-0.0002
-0.0002
-0.0002
-0.0002
-0.0002
-0.0002
-0.0002
-0.0002
-0.0002
-0.0002
-0.0002
-0.0002
-0.0002
-0.0002
-0.0002
-0.0002
-0.0002
-0.0002
-0.0002
-0.0002
-0.0002
-0.0002
-0.0002
-0.0002
-0.0002
-0.0002
-0.0002
-0.0002
-0.0002
-0.0002
-0.0002
-0.0002
-0.0002
-0.0002
-0.0002
-0.0002
-0.0002
-0.0002
-0.0002
-0.0002
-0.0002
-0.0002
-0.0002
-0.0002
-0.0002
-0.0002
-0.0002
-0.0002
-0.0002
-0.0002
-0.0002
-0.0002
-0.0002
-0.0002
-0.0002
-0.0002
-0.0002
-0.0002
-0.0002
-0.0002
-0.0002
-0.0002
-0.0002
-0.0002
-0.0002
-0.0002
-0.0002
-0.0002
-0.0002
-0.0002
-0.0002
-0.0002
-0.0002
-0.0002
-0.0002
-0.0002
-0.0002
-0.0002
-0.0002
-0.0002
-0.0002
-0.0002
-0.0002
-0.0002
-0.0002
-0.0002
-0.0002
-0.0002
-0.0002
-0.0002
-0.0002
-0.0002
-0.0002
-0.0002
-0.0002
-0.0002
-0.0002
-0.0002
-0.0002
-0.0002
-0.0002
-0.0002
-0.0002
-0.0002
-0.0002
-0.0002
-0.0002
-0.0002
-0.0002
-0.0003
-0.0003
-0.0003
-0.0003
-0.0003
-0.0003
-0.0003
-0.0003
-0.0003
-0.0003
-0.0003
-0.0003
-0.0003
-0.0003
-0.0003
-0.0003
-0.0003
-0.0003
-0.0003
-0.0003
-0.0003
-0.0003
-0.0003
-0.0003
-0.0003
-0.0003
-0.0003
-0.0003
-0.0003
-0.0003
-0.0003
-0.0003
-0.0003
-0.0003
-0.0003
-0.0003
-0.0003
-0.0003
-0.0003
-0.0003
-0.0003
-0.0003
-0.0003
-0.0003
-0.0003
-0.0003
-0.0003
-0.0003
-0.0003
-0.0003
-0.0003
-0.0003
-0.0003
-0.0003
-0.0003
-0.0003
-0.0003
-0.0003
-0.0003
-0.0003
-0.0003
-0.0003
-0.0003
-0.0003
-0.0003
-0.0003
-0.0003
-0.0003
-0.0003
-0.0003
-0.0003
-0.0003
-0.0003
-0.0003
-0.0003
-0.0003
-0.0003
-0.0003
-0.0003
-0.0003
-0.0003
-0.0003
-0.0003
-0.0003
-0.0003
-0.0003
-0.0003
-0.0003
-0.0003
-0.0003
-0.0003
-0.0003
-0.0003
-0.0003
-0.0003
-0.0003
-0.0003
-0.0003
-0.0003
-0.0003
-0.0003
-0.0003
-0.0003
-0.0003
-0.0003
-0.0003
-0.0003
-0.0003
-0.0003
-0.0003
-0.0003
-0.0003
-0.0003
-0.0003
-0.0003
-0.0003
-0.0003
-0.0003
-0.0003
-0.0003
-0.0003
-0.0003
-0.0003
-0.0003
-0.0003
-0.0003
-0.0003
-0.0003
-0.0003
-0.0003
-0.0003
-0.0003
-0.0003
-0.0003
-0.0003
-0.0003
-0.0003
-0.0003
-0.0003
-0.0003
-0.0003
-0.0003
-0.0003
-0.0003
-0.0003
-0.0003
-0.0003
-0.0003
-0.0003
-0.0003
-0.0003
-0.0003
-0.0003
-0.0003
-0.0003
-0.0003
-0.0003
-0.0003
-0.0003
-0.0003
-0.0003
-0.0003
-0.0003
-0.0003
-0.0003
-0.0003
-0.0003
-0.0003
-0.0003
-0.0003
-0.0003
-0.0003
-0.0003
-0.0003
-0.0003
-0.0003
-0.0003
-0.0003
-0.0003
-0.0003
-0.0004
-0.0004
-0.0004
-0.0004
-0.0004
-0.0004
-0.0004
-0.0004
-0.0004
-0.0004
-0.0004
-0.0004
-0.0004
-0.0004
-0.0004
-0.0004
-0.0004
-0.0004
-0.0004
-0.0004
-0.0004
-0.0004
-0.0004
-0.0004
-0.0004
-0.0004
-0.0004
-0.0004
-0.0004
-0.0004
-0.0004
-0.0004
-0.0004
-0.0004
-0.0004
-0.0004
-0.0004
-0.0004
-0.0004
-0.0004
-0.0004
-0.0004
-0.0004
-0.0004
-0.0004
-0.0004
-0.0004
-0.0004
-0.0004
-0.0004
-0.0004
-0.0004
-0.0004
-0.0004
-0.0004
-0.0004
-0.0004
-0.0004
-0.0004
-0.0004
-0.0004
-0.0004
-0.0004
-0.0004
-0.0004
-0.0004
-0.0004
-0.0004
-0.0004
-0.0004
-0.0004
-0.0004
-0.0004
-0.0004
-0.0004
-0.0004
-0.0004
-0.0004
-0.0004
-0.0004
-0.0004
-0.0004
-0.0004
-0.0004
-0.0004
-0.0004
-0.0004
-0.0004
-0.0004
-0.0004
SCALARS strain_1 float
LOOKUP_TABLE default
-0.000259
-0.413374
-0.407125
-0.400845
-0.394536
-0.388197
-0.381830
-0.375440
-0.369026
-0.362589
-0.356130
-0.349652
-0.343159
-0.336649
-0.330126
-0.323592
-0.317050
-0.310500
-0.303944
-0.297385
-0.290827
-0.284270
-0.277718
-0.271173
-0.264639
-0.258115
-0.251606
-0.245116
-0.238645
-0.232197
-0.225775
-0.219382
-0.213021
-0.206695
-0.200407
-0.194161
-0.187955
-0.181801
-0.175695
-0.169643
-0.163646
-0.157710
-0.151836
-0.146029
-0.140290
-0.134624
-0.129033
-0.123522
-0.118092
-0.112746
-0.107490
-0.102322
-0.097248
-0.092272
-0.087393
-0.082616
-0.077945
-0.073380
-0.068924
-0.064580
-0.060351
-0.056236
-0.052240
-0.048363
-0.044608
-0.040976
-0.037468
-0.034087
-0.030832
-0.027707
-0.024708
-0.021839
-0.019099
-0.016490
-0.014011
-0.011661
-0.009442
-0.007350
-0.005388
-0.003552
-0.001842
-0.413743
-0.000009
-0.001599
-0.003311
-0.005152
-0.007118
-0.009216
-0.011443
-0.013796
-0.016283
-0.018900
-0.021645
-0.024522
-0.027527
-0.030661
-0.033924
-0.037313
-0.040829
-0.044470
-0.048231
-0.052117
-0.056121
-0.060244
-0.064484
-0.068837
-0.073302
-0.077876
-0.082557
-0.087344
-0.092230
-0.097217
-0.102301
-0.107478
-0.112745
-0.118099
-0.123538
-0.129061
-0.134661
-0.140337
-0.146085
-0.151902
-0.157783
-0.163730
-0.169736
-0.175799
-0.181913
-0.188079
-0.194292
-0.200547
-0.206846
-0.213180
-0.219551
-0.225953
-0.232382
-0.238837
-0.245317
-0.251816
-0.258333
-0.264865
-0.271407
-0.277961
-0.284519
-0.291084
-0.297649
-0.304216
-0.310776
-0.317333
-0.323885
-0.330425
-0.336954
-0.343468
-0.349969
-0.356451
-0.362917
-0.369360
-0.375780
-0.382175
-0.388547
-0.394892
-0.401205
-0.407490
-0.413709
-0.413674
-0.413638
-0.413601
-0.413566
-0.413528
-0.413490
-0.413451
-0.413413
-0.000210
-0.000166
-0.000128
-0.000094
-0.000066
-0.000045
-0.000028
-0.000016
-0.000010
-0.001598
-0.001603
-0.001614
-0.001630
-0.001652
-0.001680
-0.001711
-0.001751
-0.001795
-0.003311
-0.003315
-0.003325
-0.003343
-0.003363
-0.003389
-0.003423
-0.003460
-0.003503
-0.005149
-0.005155
-0.005164
-0.005180
-0.005201
-0.005227
-0.005259
-0.005296
-0.005337
-0.007118
-0.007121
-0.007131
-0.007146
-0.007166
-0.007191
-0.007222
-0.007260
-0.007303
-0.009215
-0.009217
-0.009225
-0.009239
-0.009260
-0.009285
-0.009316
-0.009353
-0.009393
-0.011439
-0.011442
-0.011448
-0.011464
-0.011481
-0.011507
-0.011536
-0.011573
-0.011614
-0.013794
-0.013796
-0.013804
-0.013816
-0.013834
-0.013860
-0.013888
-0.013923
-0.013966
-0.016279
-0.016280
-0.016288
-0.016300
-0.016318
-0.016341
-0.016370
-0.016404
-0.016444
-0.018894
-0.018895
-0.018901
-0.018913
-0.018930
-0.018952
-0.018982
-0.019015
-0.019055
-0.021640
-0.021639
-0.021645
-0.021655
-0.021672
-0.021694
-0.021724
-0.021756
-0.021795
-0.024515
-0.024515
-0.024519
-0.024529
-0.024545
-0.024566
-0.024594
-0.024626
-0.024664
-0.027518
-0.027519
-0.027523
-0.027532
-0.027547
-0.027569
-0.027594
-0.027627
-0.027662
-0.030654
-0.030652
-0.030655
-0.030665
-0.030678
-0.030698
-0.030723
-0.030753
-0.030791
-0.033916
-0.033913
-0.033916
-0.033923
-0.033938
-0.033956
-0.033981
-0.034011
-0.034047
-0.037304
-0.037301
-0.037303
-0.037312
-0.037322
-0.037341
-0.037364
-0.037394
-0.037428
-0.040819
-0.040814
-0.040815
-0.040823
-0.040834
-0.040853
-0.040876
-0.040904
-0.040938
-0.044458
-0.044453
-0.044454
-0.044461
-0.044471
-0.044487
-0.044510
-0.044538
-0.044569
-0.048222
-0.048215
-0.048215
-0.048220
-0.048230
-0.048247
-0.048269
-0.048294
-0.048326
-0.052105
-0.052099
-0.052098
-0.052102
-0.052111
-0.052128
-0.052148
-0.052172
-0.052202
-0.056109
-0.056103
-0.056101
-0.056105
-0.056112
-0.056127
-0.056147
-0.056171
-0.056201
-0.060232
-0.060225
-0.060223
-0.060224
-0.060234
-0.060245
-0.060265
-0.060288
-0.060317
-0.064470
-0.064463
-0.064459
-0.064461
-0.064468
-0.064480
-0.064498
-0.064520
-0.064547
-0.068823
-0.068815
-0.068809
-0.068811
-0.068817
-0.068829
-0.068844
-0.068865
-0.068892
-0.073287
-0.073277
-0.073272
-0.073273
-0.073279
-0.073288
-0.073304
-0.073324
-0.073350
-0.077861
-0.077848
-0.077846
-0.077845
-0.077848
-0.077859
-0.077873
-0.077891
-0.077915
-0.082542
-0.082530
-0.082524
-0.082523
-0.082526
-0.082534
-0.082547
-0.082565
-0.082589
-0.087326
-0.087315
-0.087308
-0.087305
-0.087308
-0.087316
-0.087328
-0.087345
-0.087367
-0.092213
-0.092198
-0.092194
-0.092190
-0.092193
-0.092197
-0.092208
-0.092225
-0.092247
-0.097200
-0.097186
-0.097178
-0.097174
-0.097175
-0.097180
-0.097191
-0.097205
-0.097224
-0.102282
-0.102269
-0.102259
-0.102254
-0.102255
-0.102259
-0.102268
-0.102281
-0.102299
-0.107458
-0.107444
-0.107435
-0.107429
-0.107427
-0.107432
-0.107439
-0.107450
-0.107468
-0.112726
-0.112711
-0.112699
-0.112692
-0.112691
-0.112694
-0.112699
-0.112711
-0.112726
-0.118079
-0.118063
-0.118053
-0.118046
-0.118043
-0.118045
-0.118049
-0.118060
-0.118075
-0.123519
-0.123502
-0.123491
-0.123484
-0.123478
-0.123480
-0.123484
-0.123492
-0.123505
-0.129040
-0.129023
-0.129010
-0.129000
-0.128997
-0.128997
-0.128999
-0.129006
-0.129019
-0.134639
-0.134622
-0.134609
-0.134599
-0.134594
-0.134592
-0.134593
-0.134600
-0.134610
-0.140315
-0.140296
-0.140282
-0.140271
-0.140266
-0.140263
-0.140263
-0.140268
-0.140278
-0.146063
-0.146044
-0.146028
-0.146017
-0.146009
-0.146006
-0.146006
-0.146009
-0.146017
-0.151879
-0.151859
-0.151843
-0.151831
-0.151823
-0.151817
-0.151818
-0.151818
-0.151827
-0.157761
-0.157741
-0.157724
-0.157711
-0.157703
-0.157698
-0.157694
-0.157697
-0.157700
-0.163707
-0.163685
-0.163669
-0.163655
-0.163645
-0.163638
-0.163636
-0.163634
-0.163639
-0.169711
-0.169689
-0.169673
-0.169659
-0.169649
-0.169639
-0.169635
-0.169634
-0.169636
-0.175774
-0.175751
-0.175733
-0.175718
-0.175704
-0.175697
-0.175692
-0.175690
-0.175691
-0.181888
-0.181866
-0.181847
-0.181830
-0.181818
-0.181808
-0.181801
-0.181798
-0.181797
-0.188053
-0.188030
-0.188011
-0.187994
-0.187979
-0.187969
-0.187962
-0.187956
-0.187956
-0.194266
-0.194243
-0.194221
-0.194204
-0.194190
-0.194179
-0.194169
-0.194163
-0.194160
-0.200521
-0.200497
-0.200475
-0.200459
-0.200444
-0.200429
-0.200421
-0.200413
-0.200409
-0.206819
-0.206794
-0.206773
-0.206754
-0.206738
-0.206724
-0.206712
-0.206704
-0.206699
-0.213153
-0.213129
-0.213107
-0.213086
-0.213069
-0.213055
-0.213042
-0.213034
-0.213025
-0.219523
-0.219498
-0.219475
-0.219454
-0.219435
-0.219420
-0.219406
-0.219396
-0.219388
-0.225923
-0.225898
-0.225874
-0.225852
-0.225835
-0.225818
-0.225804
-0.225792
-0.225782
-0.232354
-0.232328
-0.232302
-0.232280
-0.232262
-0.232244
-0.232230
-0.232216
-0.232205
-0.238808
-0.238782
-0.238758
-0.238735
-0.238715
-0.238697
-0.238681
-0.238665
-0.238655
-0.245288
-0.245260
-0.245236
-0.245213
-0.245191
-0.245172
-0.245155
-0.245140
-0.245126
-0.251787
-0.251759
-0.251734
-0.251710
-0.251687
-0.251667
-0.251649
-0.251633
-0.251618
-0.258303
-0.258276
-0.258249
-0.258224
-0.258202
-0.258179
-0.258161
-0.258145
-0.258128
-0.264835
-0.264806
-0.264778
-0.264755
-0.264731
-0.264709
-0.264688
-0.264671
-0.264651
-0.271377
-0.271349
-0.271320
-0.271294
-0.271271
-0.271247
-0.271228
-0.271208
-0.271190
-0.277930
-0.277901
-0.277873
-0.277846
-0.277822
-0.277798
-0.277775
-0.277755
-0.277735
-0.284488
-0.284459
-0.284431
-0.284405
-0.284379
-0.284353
-0.284331
-0.284310
-0.284290
-0.291053