# vtk DataFile Version 2.0
Generated volume Mesh
ASCII
DATASET UNSTRUCTURED_GRID
POINTS 891 float
0.005000 0.100000 0.000000
0.005000 0.000000 0.000000
0.005000 0.001250 0.000000
0.005000 0.002500 0.000000
0.005000 0.003750 0.000000
0.005000 0.005000 0.000000
0.005000 0.006250 0.000000
0.005000 0.007500 0.000000
0.005000 0.008750 0.000000
0.005000 0.010000 0.000000
0.005000 0.011250 0.000000
0.005000 0.012500 0.000000
0.005000 0.013750 0.000000
0.005000 0.015000 0.000000
0.005000 0.016250 0.000000
0.005000 0.017500 0.000000
0.005000 0.018750 0.000000
0.005000 0.020000 0.000000
0.005000 0.021250 0.000000
0.005000 0.022500 0.000000
0.005000 0.023750 0.000000
0.005000 0.025000 0.000000
0.005000 0.026250 0.000000
0.005000 0.027500 0.000000
0.005000 0.028750 0.000000
0.005000 0.030000 0.000000
0.005000 0.031250 0.000000
0.005000 0.032500 0.000000
0.005000 0.033750 0.000000
0.005000 0.035000 0.000000
0.005000 0.036250 0.000000
0.005000 0.037500 0.000000
0.005000 0.038750 0.000000
0.005000 0.040000 0.000000
0.005000 0.041250 0.000000
0.005000 0.042500 0.000000
0.005000 0.043750 0.000000
0.005000 0.045000 0.000000
0.005000 0.046250 0.000000
0.005000 0.047500 0.000000
0.005000 0.048750 0.000000
0.005000 0.050000 0.000000
0.005000 0.051250 0.000000
0.005000 0.052500 0.000000
0.005000 0.053750 0.000000
0.005000 0.055000 0.000000
0.005000 0.056250 0.000000
0.005000 0.057500 0.000000
0.005000 0.058750 0.000000
0.005000 0.060000 0.000000
0.005000 0.061250 0.000000
0.005000 0.062500 0.000000
0.005000 0.063750 0.000000
0.005000 0.065000 0.000000
0.005000 0.066250 0.000000
0.005000 0.067500 0.000000
0.005000 0.068750 0.000000
0.005000 0.070000 0.000000
0.005000 0.071250 0.000000
0.005000 0.072500 0.000000
0.005000 0.073750 0.000000
0.005000 0.075000 0.000000
0.005000 0.076250 0.000000
0.005000 0.077500 0.000000
0.005000 0.078750 0.000000
0.005000 0.080000 0.000000
0.005000 0.081250 0.000000
0.005000 0.082500 0.000000
0.005000 0.083750 0.000000
0.005000 0.085000 0.000000
0.005000 0.086250 0.000000
0.005000 0.087500 0.000000
0.005000 0.088750 0.000000
0.005000 0.090000 0.000000
0.005000 0.091250 0.000000
0.005000 0.092500 0.000000
0.005000 0.093750 0.000000
0.005000 0.095000 0.000000
0.005000 0.096250 0.000000
0.005000 0.097500 0.000000
0.005000 0.098750 0.000000
0.000000 0.000000 0.000000
0.000000 0.100000 0.000000
0.000000 0.098750 0.000000
0.000000 0.097500 0.000000
0.000000 0.096250 0.000000
0.000000 0.095000 0.000000
0.000000 0.093750 0.000000
0.000000 0.092500 0.000000
0.000000 0.091250 0.000000
0.000000 0.090000 0.000000
0.000000 0.088750 0.000000
0.000000 0.087500 0.000000
0.000000 0.086250 0.000000
0.000000 0.085000 0.000000
0.000000 0.083750 0.000000
0.000000 0.082500 0.000000
0.000000 0.081250 0.000000
0.000000 0.080000 0.000000
0.000000 0.078750 0.000000
0.000000 0.077500 0.000000
0.000000 0.076250 0.000000
0.000000 0.075000 0.000000
0.000000 0.073750 0.000000
0.000000 0.072500 0.000000
0.000000 0.071250 0.000000
0.000000 0.070000 0.000000
0.000000 0.068750 0.000000
0.000000 0.067500 0.000000
0.000000 0.066250 0.000000
0.000000 0.065000 0.000000
0.000000 0.063750 0.000000
0.000000 0.062500 0.000000
0.000000 0.061250 0.000000
0.000000 0.060000 0.000000
0.000000 0.058750 0.000000
0.000000 0.057500 0.000000
0.000000 0.056250 0.000000
0.000000 0.055000 0.000000
0.000000 0.053750 0.000000
0.000000 0.052500 0.000000
0.000000 0.051250 0.000000
0.000000 0.050000 0.000000
0.000000 0.048750 0.000000
0.000000 0.047500 0.000000
0.000000 0.046250 0.000000
0.000000 0.045000 0.000000
0.000000 0.043750 0.000000
0.000000 0.042500 0.000000
0.000000 0.041250 0.000000
0.000000 0.040000 0.000000
0.000000 0.038750 0.000000
0.000000 0.037500 0.000000
0.000000 0.036250 0.000000
0.000000 0.035000 0.000000
0.000000 0.033750 0.000000
0.000000 0.032500 0.000000
0.000000 0.031250 0.000000
0.000000 0.030000 0.000000
0.000000 0.028750 0.000000
0.000000 0.027500 0.000000
0.000000 0.026250 0.000000
0.000000 0.025000 0.000000
0.000000 0.023750 0.000000
0.000000 0.022500 0.000000
0.000000 0.021250 0.000000
0.000000 0.020000 0.000000
0.000000 0.018750 0.000000
0.000000 0.017500 0.000000
0.000000 0.016250 0.000000
0.000000 0.015000 0.000000
0.000000 0.013750 0.000000
0.000000 0.012500 0.000000
0.000000 0.011250 0.000000
0.000000 0.010000 0.000000
0.000000 0.008750 0.000000
0.000000 0.007500 0.000000
0.000000 0.006250 0.000000
0.000000 0.005000 0.000000
0.000000 0.003750 0.000000
0.000000 0.002500 0.000000
0.000000 0.001250 0.000000
0.000500 0.000000 0.000000
0.001000 0.000000 0.000000
0.001500 0.000000 0.000000
0.002000 0.000000 0.000000
0.002500 0.000000 0.000000
0.003000 0.000000 0.000000
0.003500 0.000000 0.000000
0.004000 0.000000 0.000000
0.004500 0.000000 0.000000
0.004500 0.100000 0.000000
0.004000 0.100000 0.000000
0.003500 0.100000 0.000000
0.003000 0.100000 0.000000
0.002500 0.100000 0.000000
0.002000 0.100000 0.000000
0.001500 0.100000 0.000000
0.001000 0.100000 0.000000
0.000500 0.100000 0.000000
0.000500 0.098750 0.000000
0.001000 0.098750 0.000000
0.001500 0.098750 0.000000
0.002000 0.098750 0.000000
0.002500 0.098750 0.000000
0.003000 0.098750 0.000000
0.003500 0.098750 0.000000
0.004000 0.098750 0.000000
0.004500 0.098750 0.000000
0.000500 0.097500 0.000000
0.001000 0.097500 0.000000
0.001500 0.097500 0.000000
0.002000 0.097500 0.000000
0.002500 0.097500 0.000000
0.003000 0.097500 0.000000
0.003500 0.097500 0.000000
0.004000 0.097500 0.000000
0.004500 0.097500 0.000000
0.000500 0.096250 0.000000
0.001000 0.096250 0.000000
0.001500 0.096250 0.000000
0.002000 0.096250 0.000000
0.002500 0.096250 0.000000
0.003000 0.096250 0.000000
0.003500 0.096250 0.000000
0.004000 0.096250 0.000000
0.004500 0.096250 0.000000
0.000500 0.095000 0.000000
0.001000 0.095000 0.000000
0.001500 0.095000 0.000000
0.002000 0.095000 0.000000
0.002500 0.095000 0.000000
0.003000 0.095000 0.000000
0.003500 0.095000 0.000000
0.004000 0.095000 0.000000
0.004500 0.095000 0.000000
0.000500 0.093750 0.000000
0.001000 0.093750 0.000000
0.001500 0.093750 0.000000
0.002000 0.093750 0.000000
0.002500 0.093750 0.000000
0.003000 0.093750 0.000000
0.003500 0.093750 0.000000
0.004000 0.093750 0.000000
0.004500 0.093750 0.000000
0.000500 0.092500 0.000000
0.001000 0.092500 0.000000
0.001500 0.092500 0.000000
0.002000 0.092500 0.000000
0.002500 0.092500 0.000000
0.003000 0.092500 0.000000
0.003500 0.092500 0.000000
0.004000 0.092500 0.000000
0.004500 0.092500 0.000000
0.000500 0.091250 0.000000
0.001000 0.091250 0.000000
0.001500 0.091250 0.000000
0.002000 0.091250 0.000000
0.002500 0.091250 0.000000
0.003000 0.091250 0.000000
0.003500 0.091250 0.000000
0.004000 0.091250 0.000000
0.004500 0.091250 0.000000
0.000500 0.090000 0.000000
0.001000 0.090000 0.000000
0.001500 0.090000 0.000000
0.002000 0.090000 0.000000
0.002500 0.090000 0.000000
0.003000 0.090000 0.000000
0.003500 0.090000 0.000000
0.004000 0.090000 0.000000
0.004500 0.090000 0.000000
0.000500 0.088750 0.000000
0.001000 0.088750 0.000000
0.001500 0.088750 0.000000
0.002000 0.088750 0.000000
0.002500 0.088750 0.000000
0.003000 0.088750 0.000000
0.003500 0.088750 0.000000
0.004000 0.088750 0.000000
0.004500 0.088750 0.000000
0.000500 0.087500 0.000000
0.001000 0.087500 0.000000
0.001500 0.087500 0.000000
0.002000 0.087500 0.000000
0.002500 0.087500 0.000000
0.003000 0.087500 0.000000
0.003500 0.087500 0.000000
0.004000 0.087500 0.000000
0.004500 0.087500 0.000000
0.000500 0.086250 0.000000
0.001000 0.086250 0.000000
0.001500 0.086250 0.000000
0.002000 0.086250 0.000000
0.002500 0.086250 0.000000
0.003000 0.086250 0.000000
0.003500 0.086250 0.000000
0.004000 0.086250 0.000000
0.004500 0.086250 0.000000
0.000500 0.085000 0.000000
0.001000 0.085000 0.000000
0.001500 0.085000 0.000000
0.002000 0.085000 0.000000
0.002500 0.085000 0.000000
0.003000 0.085000 0.000000
0.003500 0.085000 0.000000
0.004000 0.085000 0.000000
0.004500 0.085000 0.000000
0.000500 0.083750 0.000000
0.001000 0.083750 0.000000
0.001500 0.083750 0.000000
0.002000 0.083750 0.000000
0.002500 0.083750 0.000000
0.003000 0.083750 0.000000
0.003500 0.083750 0.000000
0.004000 0.083750 0.000000
0.004500 0.083750 0.000000
0.000500 0.082500 0.000000
0.001000 0.082500 0.000000
0.001500 0.082500 0.000000
0.002000 0.082500 0.000000
0.002500 0.082500 0.000000
0.003000 0.082500 0.000000
0.003500 0.082500 0.000000
0.004000 0.082500 0.000000
0.004500 0.082500 0.000000
0.000500 0.081250 0.000000
0.001000 0.081250 0.000000
0.001500 0.081250 0.000000
0.002000 0.081250 0.000000
0.002500 0.081250 0.000000
0.003000 0.081250 0.000000
0.003500 0.081250 0.000000
0.004000 0.081250 0.000000
0.004500 0.081250 0.000000
0.000500 0.080000 0.000000
0.001000 0.080000 0.000000
0.001500 0.080000 0.000000
0.002000 0.080000 0.000000
0.002500 0.080000 0.000000
0.003000 0.080000 0.000000
0.003500 0.080000 0.000000
0.004000 0.080000 0.000000
0.004500 0.080000 0.000000
0.000500 0.078750 0.000000
0.001000 0.078750 0.000000
0.001500 0.078750 0.000000
0.002000 0.078750 0.000000
0.002500 0.078750 0.000000
0.003000 0.078750 0.000000
0.003500 0.078750 0.000000
0.004000 0.078750 0.000000
0.004500 0.078750 0.000000
0.000500 0.077500 0.000000
0.001000 0.077500 0.000000
0.001500 0.077500 0.000000
0.002000 0.077500 0.000000
0.002500 0.077500 0.000000
0.003000 0.077500 0.000000
0.003500 0.077500 0.000000
0.004000 0.077500 0.000000
0.004500 0.077500 0.000000
0.000500 0.076250 0.000000
0.001000 0.076250 0.000000
0.001500 0.076250 0.000000
0.002000 0.076250 0.000000
0.002500 0.076250 0.000000
0.003000 0.076250 0.000000
0.003500 0.076250 0.000000
0.004000 0.076250 0.000000
0.004500 0.076250 0.000000
0.000500 0.075000 0.000000
0.001000 0.075000 0.000000
0.001500 0.075000 0.000000
0.002000 0.075000 0.000000
0.002500 0.075000 0.000000
0.003000 0.075000 0.000000
0.003500 0.075000 0.000000
0.004000 0.075000 0.000000
0.004500 0.075000 0.000000
0.000500 0.073750 0.000000
0.001000 0.073750 0.000000
0.001500 0.073750 0.000000
0.002000 0.073750 0.000000
0.002500 0.073750 0.000000
0.003000 0.073750 0.000000
[...]
POINT_DATA 891
SCALARS u1 float
LOOKUP_TABLE default
2e-17
-4e-06
-4e-06
-4e-06
-4e-06
-4e-06
-4e-06
-4e-06
-4e-06
-4e-06
-4e-06
-4e-06
-4e-06
-4e-06
-4e-06
-4e-06
-4e-06
-4e-06
-4e-06
-4e-06
-4e-06
-4e-06
-4e-06
-4e-06
-4e-06
-4e-06
-4e-06
-4e-06
-4e-06
-4e-06
-4e-06
-4e-06
-4e-06
-4e-06
-4e-06
-4e-06
-4e-06
-4e-06
-4e-06
-4e-06
-4e-06
-4e-06
-4e-06
-4e-06
-4e-06
-4e-06
-4e-06
-4e-06
-4e-06
-4e-06
-4e-06
-4e-06
-4e-06
-4e-06
-4e-06
-4e-06
-4e-06
-4e-06
-4e-06
-4e-06
-4e-06
-4e-06
-4e-06
-4e-06
-4e-06
-4e-06
-4e-06
-4e-06
-4e-06
-4e-06
-4e-06
-4e-06
-4e-06
-4e-06
-4e-06
-4e-06
-4e-06
-4e-06
-4e-06
-4e-06
-3e-06
4e-06
-8e-16
3e-06
4e-06
4e-06
4e-06
4e-06
4e-06
4e-06
4e-06
4e-06
4e-06
4e-06
4e-06
4e-06
4e-06
4e-06
4e-06
4e-06
4e-06
4e-06
4e-06
4e-06
4e-06
4e-06
4e-06
4e-06
4e-06
4e-06
4e-06
4e-06
4e-06
4e-06
4e-06
4e-06
4e-06
4e-06
4e-06
4e-06
4e-06
4e-06
4e-06
4e-06
4e-06
4e-06
4e-06
4e-06
4e-06
4e-06
4e-06
4e-06
4e-06
4e-06
4e-06
4e-06
4e-06
4e-06
4e-06
4e-06
4e-06
4e-06
4e-06
4e-06
4e-06
4e-06
4e-06
4e-06
4e-06
4e-06
4e-06
4e-06
4e-06
4e-06
4e-06
4e-06
4e-06
4e-06
4e-06
4e-06
4e-06
4e-06
3e-06
3e-06
2e-06
8e-07
6e-14
-8e-07
-2e-06
-3e-06
-3e-06
-1e-15
6e-16
4e-16
-4e-16
-1e-16
-2e-15
1e-15
9e-16
8e-16
2e-06
2e-06
1e-06
5e-07
1e-14
-5e-07
-1e-06
-2e-06
-2e-06
3e-06
2e-06
2e-06
8e-07
4e-14
-8e-07
-2e-06
-2e-06
-3e-06
3e-06
3e-06
2e-06
9e-07
6e-14
-9e-07
-2e-06
-3e-06
-3e-06
3e-06
3e-06
2e-06
9e-07
6e-14
-9e-07
-2e-06
-3e-06
-3e-06
3e-06
3e-06
2e-06
9e-07
6e-14
-9e-07
-2e-06
-3e-06
-3e-06
3e-06
3e-06
2e-06
8e-07
6e-14
-8e-07
-2e-06
-3e-06
-3e-06
3e-06
3e-06
2e-06
8e-07
6e-14
-8e-07
-2e-06
-3e-06
-3e-06
3e-06
3e-06
2e-06
8e-07
6e-14
-8e-07
-2e-06
-3e-06
-3e-06
3e-06
3e-06
2e-06
8e-07
6e-14
-8e-07
-2e-06
-3e-06
-3e-06
3e-06
3e-06
2e-06
8e-07
6e-14
-8e-07
-2e-06
-3e-06
-3e-06
3e-06
3e-06
2e-06
8e-07
6e-14
-8e-07
-2e-06
-3e-06
-3e-06
3e-06
3e-06
2e-06
8e-07
6e-14
-8e-07
-2e-06
-3e-06
-3e-06
3e-06
3e-06
2e-06
8e-07
6e-14
-8e-07
-2e-06
-3e-06
-3e-06
3e-06
3e-06
2e-06
8e-07
6e-14
-8e-07
-2e-06
-3e-06
-3e-06
3e-06
3e-06
2e-06
8e-07
6e-14
-8e-07
-2e-06
-3e-06
-3e-06
3e-06
3e-06
2e-06
8e-07
6e-14
-8e-07
-2e-06
-3e-06
-3e-06
3e-06
3e-06
2e-06
8e-07
6e-14
-8e-07
-2e-06
-3e-06
-3e-06
3e-06
3e-06
2e-06
8e-07
6e-14
-8e-07
-2e-06
-3e-06
-3e-06
3e-06
3e-06
2e-06
8e-07
6e-14
-8e-07
-2e-06
-3e-06
-3e-06
3e-06
3e-06
2e-06
8e-07
6e-14
-8e-07
-2e-06
-3e-06
-3e-06
3e-06
3e-06
2e-06
8e-07
6e-14
-8e-07
-2e-06
-3e-06
-3e-06
3e-06
3e-06
2e-06
8e-07
6e-14
-8e-07
-2e-06
-3e-06
-3e-06
3e-06
3e-06
2e-06
8e-07
6e-14
-8e-07
-2e-06
-3e-06
-3e-06
3e-06
3e-06
2e-06
8e-07
6e-14
-8e-07
-2e-06
-3e-06
-3e-06
3e-06
3e-06
2e-06
8e-07
6e-14
-8e-07
-2e-06
-3e-06
-3e-06
3e-06
3e-06
2e-06
8e-07
6e-14
-8e-07
-2e-06
-3e-06
-3e-06
3e-06
3e-06
2e-06
8e-07
6e-14
-8e-07
-2e-06
-3e-06
-3e-06
3e-06
3e-06
2e-06
8e-07
6e-14
-8e-07
-2e-06
-3e-06
-3e-06
3e-06
3e-06
2e-06
8e-07
6e-14
-8e-07
-2e-06
-3e-06
-3e-06
3e-06
3e-06
2e-06
8e-07
6e-14
-8e-07
-2e-06
-3e-06
-3e-06
3e-06
3e-06
2e-06
8e-07
6e-14
-8e-07
-2e-06
-3e-06
-3e-06
3e-06
3e-06
2e-06
8e-07
6e-14
-8e-07
-2e-06
-3e-06
-3e-06
3e-06
3e-06
2e-06
8e-07
6e-14
-8e-07
-2e-06
-3e-06
-3e-06
3e-06
3e-06
2e-06
8e-07
6e-14
-8e-07
-2e-06
-3e-06
-3e-06
3e-06
3e-06
2e-06
8e-07
6e-14
-8e-07
-2e-06
-3e-06
-3e-06
3e-06
3e-06
2e-06
8e-07
6e-14
-8e-07
-2e-06
-3e-06
-3e-06
3e-06
3e-06
2e-06
8e-07
6e-14
-8e-07
-2e-06
-3e-06
-3e-06
3e-06
3e-06
2e-06
8e-07
6e-14
-8e-07
-2e-06
-3e-06
-3e-06
3e-06
3e-06
2e-06
8e-07
6e-14
-8e-07
-2e-06
-3e-06
-3e-06
3e-06
3e-06
2e-06
8e-07
6e-14
-8e-07
-2e-06
-3e-06
-3e-06
3e-06
3e-06
2e-06
8e-07
6e-14
-8e-07
-2e-06
-3e-06
-3e-06
3e-06
3e-06
2e-06
8e-07
6e-14
-8e-07
-2e-06
-3e-06
-3e-06
3e-06
3e-06
2e-06
8e-07
6e-14
-8e-07
-2e-06
-3e-06
-3e-06
3e-06
3e-06
2e-06
8e-07
6e-14
-8e-07
-2e-06
-3e-06
-3e-06
3e-06
3e-06
2e-06
8e-07
6e-14
-8e-07
-2e-06
-3e-06
-3e-06
3e-06
3e-06
2e-06
8e-07
6e-14
-8e-07
-2e-06
-3e-06
-3e-06
3e-06
3e-06
2e-06
8e-07
6e-14
-8e-07
-2e-06
-3e-06
-3e-06
3e-06
3e-06
2e-06
8e-07
6e-14
-8e-07
-2e-06
-3e-06
-3e-06
3e-06
3e-06
2e-06
8e-07
6e-14
-8e-07
-2e-06
-3e-06
-3e-06
3e-06
3e-06
2e-06
8e-07
6e-14
-8e-07
-2e-06
-3e-06
-3e-06
3e-06
3e-06
2e-06
8e-07
6e-14
-8e-07
-2e-06
-3e-06
-3e-06
3e-06
3e-06
2e-06
8e-07
6e-14
-8e-07
-2e-06
-3e-06
-3e-06
3e-06
3e-06
2e-06
8e-07
6e-14
-8e-07
-2e-06
-3e-06
-3e-06
3e-06
3e-06
2e-06
8e-07
6e-14
-8e-07
-2e-06
-3e-06
-3e-06
3e-06
3e-06
2e-06
8e-07
6e-14
-8e-07
-2e-06
-3e-06
-3e-06
3e-06
3e-06
2e-06
8e-07
6e-14
-8e-07
-2e-06
-3e-06
-3e-06
3e-06
3e-06
2e-06
8e-07
6e-14
-8e-07
-2e-06
-3e-06
-3e-06
3e-06
3e-06
2e-06
8e-07
6e-14
-8e-07
-2e-06
-3e-06
-3e-06
3e-06
3e-06
2e-06
8e-07
6e-14
-8e-07
-2e-06
-3e-06
-3e-06
3e-06
3e-06
2e-06
8e-07
6e-14
-8e-07
-2e-06
-3e-06
-3e-06
3e-06
3e-06
2e-06
8e-07
6e-14
-8e-07
-2e-06
-3e-06
-3e-06
3e-06
3e-06
2e-06
8e-07
6e-14
-8e-07
-2e-06
-3e-06
-3e-06
3e-06
3e-06
2e-06
8e-07
6e-14
-8e-07
-2e-06
-3e-06
-3e-06
3e-06
3e-06
2e-06
8e-07
6e-14
-8e-07
-2e-06
-3e-06
-3e-06
3e-06
3e-06
2e-06
8e-07
6e-14
-8e-07
-2e-06
-3e-06
-3e-06
3e-06
3e-06
2e-06
8e-07
6e-14
-8e-07
-2e-06
-3e-06
-3e-06
3e-06
3e-06
2e-06
8e-07
6e-14
-8e-07
-2e-06
-3e-06
-3e-06
3e-06
3e-06
2e-06
8e-07
6e-14
-8e-07
-2e-06
-3e-06
-3e-06
3e-06
3e-06
2e-06
8e-07
6e-14
-8e-07
-2e-06
-3e-06
-3e-06
3e-06
3e-06
2e-06
8e-07
6e-14
-8e-07
-2e-06
-3e-06
-3e-06
3e-06
3e-06
2e-06
8e-07
6e-14
-8e-07
-2e-06
-3e-06
-3e-06
3e-06
3e-06
2e-06
8e-07
6e-14
-8e-07
-2e-06
-3e-06
-3e-06
3e-06
3e-06
2e-06
8e-07
6e-14
-8e-07
-2e-06
-3e-06
-3e-06
3e-06
3e-06
2e-06
8e-07
6e-14
-8e-07
-2e-06
-3e-06
-3e-06
3e-06
3e-06
2e-06
8e-07
6e-14
-8e-07
-2e-06
-3e-06
-3e-06
3e-06
3e-06
2e-06
8e-07
6e-14
-8e-07
-2e-06
-3e-06
-3e-06
3e-06
3e-06
2e-06
8e-07
6e-14
-8e-07
-2e-06
-3e-06
-3e-06
3e-06
3e-06
2e-06
8e-07
6e-14
-8e-07
-2e-06
-3e-06
-3e-06
3e-06
3e-06
2e-06
8e-07
6e-14
-8e-07
-2e-06
-3e-06
-3e-06
SCALARS u2 float
LOOKUP_TABLE default
-2e-16
-0.0005
-0.0004
-0.0004
-0.0004
-0.0004
-0.0004
-0.0004
-0.0004
-0.0004
-0.0004
-0.0004
-0.0004
-0.0004
-0.0004
-0.0004
-0.0004
-0.0004
-0.0004
-0.0003
-0.0003
-0.0003
-0.0003
-0.0003
-0.0003
-0.0003
-0.0003
-0.0003
-0.0003
-0.0003
-0.0003
-0.0003
-0.0003
-0.0003
-0.0003
-0.0003
-0.0003
-0.0002
-0.0002
-0.0002
-0.0002
-0.0002
-0.0002
-0.0002
-0.0002
-0.0002
-0.0002
-0.0002
-0.0002
-0.0002
-0.0002
-0.0002
-0.0002
-0.0002
-0.0002
-0.0001
-0.0001
-0.0001
-0.0001
-0.0001
-0.0001
-0.0001
-0.0001
-0.0001
-0.0001
-9e-05
-8e-05
-8e-05
-7e-05
-7e-05
-6e-05
-6e-05
-5e-05
-4e-05
-4e-05
-3e-05
-3e-05
-2e-05
-2e-05
-1e-05
-6e-06
-0.0005
-2e-16
-6e-06
-1e-05
-2e-05
-2e-05
-3e-05
-3e-05
-4e-05
-4e-05
-5e-05
-6e-05
-6e-05
-7e-05
-7e-05
-8e-05
-8e-05
-9e-05
-0.0001
-0.0001
-0.0001
-0.0001
-0.0001
-0.0001
-0.0001
-0.0001
-0.0001
-0.0001
-0.0002
-0.0002
-0.0002
-0.0002
-0.0002
-0.0002
-0.0002
-0.0002
-0.0002
-0.0002
-0.0002
-0.0002
-0.0002
-0.0002
-0.0002
-0.0002
-0.0002
-0.0002
-0.0003
-0.0003
-0.0003
-0.0003
-0.0003
-0.0003
-0.0003
-0.0003
-0.0003
-0.0003
-0.0003
-0.0003
-0.0003
-0.0003
-0.0003
-0.0003
-0.0003
-0.0003
-0.0004
-0.0004
-0.0004
-0.0004
-0.0004
-0.0004
-0.0004
-0.0004
-0.0004
-0.0004
-0.0004
-0.0004
-0.0004
-0.0004
-0.0004
-0.0004
-0.0004
-0.0005
-0.0005
-0.0005
-0.0005
-0.0005
-0.0005
-0.0005
-0.0005
-0.0005
1e-15
2e-15
-4e-16
-2e-15
-1e-15
4e-16
-8e-16
1e-16
-1e-15
-5e-06
-5e-06
-5e-06
-5e-06
-5e-06
-5e-06
-5e-06
-5e-06
-5e-06
-1e-05
-1e-05
-1e-05
-1e-05
-1e-05
-1e-05
-1e-05
-1e-05
-1e-05
-2e-05
-2e-05
-2e-05
-2e-05
-2e-05
-2e-05
-2e-05
-2e-05
-2e-05
-2e-05
-2e-05
-2e-05
-2e-05
-2e-05
-2e-05
-2e-05
-2e-05
-2e-05
-3e-05
-3e-05
-3e-05
-3e-05
-3e-05
-3e-05
-3e-05
-3e-05
-3e-05
-3e-05
-3e-05
-3e-05
-3e-05
-3e-05
-3e-05
-3e-05
-3e-05
-3e-05
-4e-05
-4e-05
-4e-05
-4e-05
-4e-05
-4e-05
-4e-05
-4e-05
-4e-05
-4e-05
-4e-05
-4e-05
-4e-05
-4e-05
-4e-05
-4e-05
-4e-05
-4e-05
-5e-05
-5e-05
-5e-05
-5e-05
-5e-05
-5e-05
-5e-05
-5e-05
-5e-05
-6e-05
-6e-05
-6e-05
-6e-05
-6e-05
-6e-05
-6e-05
-6e-05
-6e-05
-6e-05
-6e-05
-6e-05
-6e-05
-6e-05
-6e-05
-6e-05
-6e-05
-6e-05
-7e-05
-7e-05
-7e-05
-7e-05
-7e-05
-7e-05
-7e-05
-7e-05
-7e-05
-7e-05
-7e-05
-7e-05
-7e-05
-7e-05
-7e-05
-7e-05
-7e-05
-7e-05
-8e-05
-8e-05
-8e-05
-8e-05
-8e-05
-8e-05
-8e-05
-8e-05
-8e-05
-8e-05
-8e-05
-8e-05
-8e-05
-8e-05
-8e-05
-8e-05
-8e-05
-8e-05
-9e-05
-9e-05
-9e-05
-9e-05
-9e-05
-9e-05
-9e-05
-9e-05
-9e-05
-0.0001
-0.0001
-0.0001
-0.0001
-0.0001
-0.0001
-0.0001
-0.0001
-0.0001
-0.0001
-0.0001
-0.0001
-0.0001
-0.0001
-0.0001
-0.0001
-0.0001
-0.0001
-0.0001
-0.0001
-0.0001
-0.0001
-0.0001
-0.0001
-0.0001
-0.0001
-0.0001
-0.0001
-0.0001
-0.0001
-0.0001
-0.0001
-0.0001
-0.0001
-0.0001
-0.0001
-0.0001
-0.0001
-0.0001
-0.0001
-0.0001
-0.0001
-0.0001
-0.0001
-0.0001
-0.0001
-0.0001
-0.0001
-0.0001
-0.0001
-0.0001
-0.0001
-0.0001
-0.0001
-0.0001
-0.0001
-0.0001
-0.0001
-0.0001
-0.0001
-0.0001
-0.0001
-0.0001
-0.0001
-0.0001
-0.0001
-0.0001
-0.0001
-0.0001
-0.0001
-0.0001
-0.0001
-0.0001
-0.0001
-0.0001
-0.0001
-0.0001
-0.0001
-0.0001
-0.0001
-0.0001
-0.0001
-0.0001
-0.0001
-0.0001
-0.0001
-0.0001
-0.0001
-0.0001
-0.0001
-0.0002
-0.0002
-0.0002
-0.0002
-0.0002
-0.0002
-0.0002
-0.0002
-0.0002
-0.0002
-0.0002
-0.0002
-0.0002
-0.0002
-0.0002
-0.0002
-0.0002
-0.0002
-0.0002
-0.0002
-0.0002
-0.0002
-0.0002
-0.0002
-0.0002
-0.0002
-0.0002
-0.0002
-0.0002
-0.0002
-0.0002
-0.0002
-0.0002
-0.0002
-0.0002
-0.0002
-0.0002
-0.0002
-0.0002
-0.0002
-0.0002
-0.0002
-0.0002
-0.0002
-0.0002
-0.0002
-0.0002
-0.0002
-0.0002
-0.0002
-0.0002
-0.0002
-0.0002
-0.0002
-0.0002
-0.0002
-0.0002
-0.0002
-0.0002
-0.0002
-0.0002
-0.0002
-0.0002
-0.0002
-0.0002
-0.0002
-0.0002
-0.0002
-0.0002
-0.0002
-0.0002
-0.0002
-0.0002
-0.0002
-0.0002
-0.0002
-0.0002
-0.0002
-0.0002
-0.0002
-0.0002
-0.0002
-0.0002
-0.0002
-0.0002
-0.0002
-0.0002
-0.0002
-0.0002
-0.0002
-0.0002
-0.0002
-0.0002
-0.0002
-0.0002
-0.0002
-0.0002
-0.0002
-0.0002
-0.0002
-0.0002
-0.0002
-0.0002
-0.0002
-0.0002
-0.0002
-0.0002
-0.0002
-0.0002
-0.0002
-0.0002
-0.0002
-0.0002
-0.0002
-0.0002
-0.0002
-0.0002
-0.0002
-0.0002
-0.0002
-0.0002
-0.0002
-0.0002
-0.0002
-0.0002
-0.0002
-0.0002
-0.0002
-0.0002
-0.0002
-0.0002
-0.0002
-0.0002
-0.0002
-0.0002
-0.0002
-0.0002
-0.0002
-0.0002
-0.0002
-0.0002
-0.0002
-0.0002
-0.0002
-0.0002
-0.0002
-0.0002
-0.0002
-0.0002
-0.0002
-0.0002
-0.0002
-0.0002
-0.0002
-0.0002
-0.0002
-0.0002
-0.0002
-0.0002
-0.0002
-0.0002
-0.0002
-0.0003
-0.0003
-0.0003
-0.0003
-0.0003
-0.0003
-0.0003
-0.0003
-0.0003
-0.0003
-0.0003
-0.0003
-0.0003
-0.0003
-0.0003
-0.0003
-0.0003
-0.0003
-0.0003
-0.0003
-0.0003
-0.0003
-0.0003
-0.0003
-0.0003
-0.0003
-0.0003
-0.0003
-0.0003
-0.0003
-0.0003
-0.0003
-0.0003
-0.0003
-0.0003
-0.0003
-0.0003
-0.0003
-0.0003
-0.0003
-0.0003
-0.0003
-0.0003
-0.0003
-0.0003
-0.0003
-0.0003
-0.0003
-0.0003
-0.0003
-0.0003
-0.0003
-0.0003
-0.0003
-0.0003
-0.0003
-0.0003
-0.0003
-0.0003
-0.0003
-0.0003
-0.0003
-0.0003
-0.0003
-0.0003
-0.0003
-0.0003
-0.0003
-0.0003
-0.0003
-0.0003
-0.0003
-0.0003
-0.0003
-0.0003
-0.0003
-0.0003
-0.0003
-0.0003
-0.0003
-0.0003
-0.0003
-0.0003
-0.0003
-0.0003
-0.0003
-0.0003
-0.0003
-0.0003
-0.0003
-0.0003
-0.0003
-0.0003
-0.0003
-0.0003
-0.0003
-0.0003
-0.0003
-0.0003
-0.0003
-0.0003
-0.0003
-0.0003
-0.0003
-0.0003
-0.0003
-0.0003
-0.0003
-0.0003
-0.0003
-0.0003
-0.0003
-0.0003
-0.0003
-0.0003
-0.0003
-0.0003
-0.0003
-0.0003
-0.0003
-0.0003
-0.0003
-0.0003
-0.0003
-0.0003
-0.0003
-0.0003
-0.0003
-0.0003
-0.0003
-0.0003
-0.0003
-0.0003
-0.0003
-0.0003
-0.0003
-0.0003
-0.0003
-0.0003
-0.0003
-0.0003
-0.0003
-0.0003
-0.0003
-0.0003
-0.0003
-0.0003
-0.0003
-0.0003
-0.0003
-0.0003
-0.0003
-0.0003
-0.0003
-0.0003
-0.0003
-0.0003
-0.0003
-0.0003
-0.0003
-0.0003
-0.0003
-0.0004
-0.0004
-0.0004
-0.0004
-0.0004
-0.0004
-0.0004
-0.0004
-0.0004
-0.0004
-0.0004
-0.0004
-0.0004
-0.0004
-0.0004
-0.0004
-0.0004
-0.0004
-0.0004
-0.0004
-0.0004
-0.0004
-0.0004
-0.0004
-0.0004
-0.0004
-0.0004
-0.0004
-0.0004
-0.0004
-0.0004
-0.0004
-0.0004
-0.0004
-0.0004
-0.0004
-0.0004
-0.0004
-0.0004
-0.0004
-0.0004
-0.0004
-0.0004
-0.0004
-0.0004
-0.0004
-0.0004
-0.0004
-0.0004
-0.0004
-0.0004
-0.0004
-0.0004
-0.0004
-0.0004
-0.0004
-0.0004
-0.0004
-0.0004
-0.0004
-0.0004
-0.0004
-0.0004
-0.0004
-0.0004
-0.0004
-0.0004
-0.0004
-0.0004
-0.0004
-0.0004
-0.0004
-0.0004
-0.0004
-0.0004
-0.0004
-0.0004
-0.0004
-0.0004
-0.0004
-0.0004
-0.0004
-0.0004
-0.0004
-0.0004
-0.0004
-0.0004
-0.0004
-0.0004
-0.0004
-0.0004
-0.0004
-0.0004
-0.0004
-0.0004
-0.0004
-0.0004
-0.0004
-0.0004
-0.0004
-0.0004
-0.0004
-0.0004
-0.0004
-0.0004
-0.0004
-0.0004
-0.0004
-0.0004
-0.0004
-0.0004
-0.0004
-0.0004
-0.0004
-0.0004
-0.0004
-0.0004
-0.0004
-0.0004
-0.0004
-0.0004
-0.0004
-0.0004
-0.0004
-0.0004
-0.0004
-0.0004
-0.0004
-0.0004
-0.0004
-0.0004
-0.0004
-0.0004
-0.0004
-0.0004
-0.0004
-0.0004
-0.0004
-0.0004
-0.0004
-0.0004
-0.0004
-0.0004
-0.0004
-0.0004
-0.0004
-0.0004
-0.0004
-0.0004
-0.0004
-0.0004
-0.0004
-0.0004
SCALARS strain_1 float
LOOKUP_TABLE default
-0.000302
-0.482643
-0.475347
-0.468015
-0.460647
-0.453246
-0.445812
-0.438351
-0.430862
-0.423344
-0.415804
-0.408241
-0.400659
-0.393057
-0.385442
-0.377813
-0.370173
-0.362525
-0.354871
-0.347214
-0.339557
-0.331902
-0.324251
-0.316610
-0.308979
-0.301361
-0.293763
-0.286184
-0.278629
-0.271100
-0.263601
-0.256139
-0.248711
-0.241326
-0.233984
-0.226689
-0.219447
-0.212258
-0.205128
-0.198063
-0.191060
-0.184131
-0.177273
-0.170492
-0.163793
-0.157177
-0.150649
-0.144216
-0.137875
-0.131634
-0.125494
-0.119462
-0.113537
-0.107725
-0.102031
-0.096454
-0.091000
-0.085669
-0.080468
-0.075396
-0.070457
-0.065654
-0.060988
-0.056463
-0.052079
-0.047838
-0.043744
-0.039796
-0.035995
-0.032345
-0.028844
-0.025494
-0.022297
-0.019251
-0.016356
-0.013613
-0.011022
-0.008580
-0.006289
-0.004148
-0.002151
-0.483073
-0.000010
-0.001866
-0.003865
-0.006015
-0.008312
-0.010758
-0.013358
-0.016109
-0.019011
-0.022062
-0.025269
-0.028628
-0.032136
-0.035793
-0.039604
-0.043562
-0.047667
-0.051914
-0.056309
-0.060845
-0.065521
-0.070335
-0.075284
-0.080365
-0.085579
-0.090919
-0.096385
-0.101972
-0.107678
-0.113500
-0.119436
-0.125480
-0.131631
-0.137885
-0.144235
-0.150681
-0.157220
-0.163847
-0.170557
-0.177350
-0.184219
-0.191161
-0.198172
-0.205249
-0.212390
-0.219589
-0.226842
-0.234148
-0.241501
-0.248898
-0.256335
-0.263809
-0.271318
-0.278856
-0.286419
-0.294008
-0.301616
-0.309242
-0.316882
-0.324533
-0.332192
-0.339857
-0.347523
-0.355188
-0.362850
-0.370506
-0.378154
-0.385789
-0.393415
-0.401023
-0.408612
-0.416182
-0.423728
-0.431251
-0.438748
-0.446215
-0.453654
-0.461061
-0.468434
-0.475773
-0.483033
-0.482993
-0.482951
-0.482910
-0.482865
-0.482822
-0.482779
-0.482733
-0.482689
-0.000244
-0.000193
-0.000148
-0.000110
-0.000078
-0.000051
-0.000032
-0.000019
-0.000012
-0.001866
-0.001872
-0.001884
-0.001903
-0.001928
-0.001960
-0.001998
-0.002042
-0.002095
-0.003866
-0.003871
-0.003883
-0.003902
-0.003926
-0.003958
-0.003995
-0.004040
-0.004089
-0.006013
-0.006017
-0.006029
-0.006046
-0.006071
-0.006103
-0.006139
-0.006181
-0.006233
-0.008310
-0.008314
-0.008325
-0.008342
-0.008365
-0.008395
-0.008432
-0.008476
-0.008523
-0.010755
-0.010760
-0.010770
-0.010785
-0.010808
-0.010838
-0.010875
-0.010917
-0.010966
-0.013354
-0.013358
-0.013365
-0.013383
-0.013403
-0.013432
-0.013469
-0.013510
-0.013558
-0.016102
-0.016104
-0.016114
-0.016128
-0.016151
-0.016179
-0.016214
-0.016254
-0.016303
-0.019004
-0.019007
-0.019015
-0.019028
-0.019049
-0.019075
-0.019111
-0.019149
-0.019197
-0.022058
-0.022059
-0.022066
-0.022080
-0.022099
-0.022125
-0.022159
-0.022198
-0.022246
-0.025265
-0.025262
-0.025268
-0.025282
-0.025301
-0.025328
-0.025359
-0.025398
-0.025444
-0.028620
-0.028620
-0.028625
-0.028637
-0.028655
-0.028680
-0.028710
-0.028751
-0.028794
-0.032128
-0.032126
-0.032131
-0.032141
-0.032160
-0.032184
-0.032215
-0.032251
-0.032297
-0.035786
-0.035783
-0.035788
-0.035797
-0.035815
-0.035839
-0.035868
-0.035904
-0.035947
-0.039595
-0.039591
-0.039594
-0.039604
-0.039620
-0.039643
-0.039671
-0.039707
-0.039748
-0.043552
-0.043547
-0.043549
-0.043557
-0.043573
-0.043594
-0.043621
-0.043656
-0.043696
-0.047655
-0.047650
-0.047651
-0.047659
-0.047673
-0.047695
-0.047719
-0.047753
-0.047792
-0.051903
-0.051899
-0.051897
-0.051905
-0.051919
-0.051938
-0.051963
-0.051996
-0.052034
-0.056297
-0.056290
-0.056289
-0.056297
-0.056307
-0.056325
-0.056351
-0.056382
-0.056420
-0.060832
-0.060825
-0.060823
-0.060828
-0.060838
-0.060857
-0.060880
-0.060909
-0.060946
-0.065506
-0.065498
-0.065496
-0.065502
-0.065511
-0.065528
-0.065549
-0.065579
-0.065614
-0.070319
-0.070312
-0.070308
-0.070311
-0.070321
-0.070336
-0.070357
-0.070384
-0.070417
-0.075268
-0.075259
-0.075256
-0.075257
-0.075266
-0.075280
-0.075300
-0.075326
-0.075359
-0.080351
-0.080338
-0.080334
-0.080335
-0.080343
-0.080357
-0.080376
-0.080402
-0.080432
-0.085561
-0.085550
-0.085545
-0.085545
-0.085553
-0.085563
-0.085581
-0.085604
-0.085635
-0.090901
-0.090889
-0.090883
-0.090884
-0.090890
-0.090899
-0.090916
-0.090938
-0.090966
-0.096367
-0.096353
-0.096347
-0.096345
-0.096349
-0.096358
-0.096375
-0.096394
-0.096422
-0.101954
-0.101941
-0.101932
-0.101930
-0.101933
-0.101942
-0.101955
-0.101975
-0.102001
-0.107660
-0.107644
-0.107636
-0.107632
-0.107633
-0.107641
-0.107655
-0.107672
-0.107697
-0.113481
-0.113466
-0.113456
-0.113452
-0.113454
-0.113460
-0.113470
-0.113488
-0.113510
-0.119416
-0.119400
-0.119389
-0.119383
-0.119384
-0.119389
-0.119397
-0.119413
-0.119435
-0.125458
-0.125441
-0.125429
-0.125423
-0.125424
-0.125427
-0.125437
-0.125450
-0.125471
-0.131609
-0.131590
-0.131578
-0.131571
-0.131569
-0.131571
-0.131578
-0.131591
-0.131610
-0.137859
-0.137842
-0.137828
-0.137820
-0.137817
-0.137819
-0.137825
-0.137835
-0.137853
-0.144211
-0.144192
-0.144178
-0.144168
-0.144164
-0.144163
-0.144168
-0.144181
-0.144196
-0.150657
-0.150637
-0.150622
-0.150612
-0.150607
-0.150606
-0.150609
-0.150618
-0.150631
-0.157196
-0.157174
-0.157158
-0.157148
-0.157139
-0.157139
-0.157142
-0.157148
-0.157161
-0.163819
-0.163800
-0.163782
-0.163771
-0.163763
-0.163759
-0.163761
-0.163768
-0.163777
-0.170530
-0.170509
-0.170492
-0.170478
-0.170470
-0.170465
-0.170465
-0.170471
-0.170478
-0.177321
-0.177299
-0.177281
-0.177269
-0.177256
-0.177250
-0.177250
-0.177253
-0.177262
-0.184190
-0.184168
-0.184147
-0.184134
-0.184123
-0.184116
-0.184114
-0.184115
-0.184121
-0.191133
-0.191109
-0.191088
-0.191073
-0.191062
-0.191053
-0.191049
-0.191049
-0.191052
-0.198144
-0.198119
-0.198098
-0.198080
-0.198069
-0.198059
-0.198054
-0.198053
-0.198056
-0.205222
-0.205196
-0.205175
-0.205157
-0.205143
-0.205132
-0.205126
-0.205123
-0.205124
-0.212361
-0.212335
-0.212312
-0.212294
-0.212279
-0.212267
-0.212260
-0.212256
-0.212255
-0.219561
-0.219532
-0.219510
-0.219491
-0.219473
-0.219462
-0.219453
-0.219447
-0.219445
-0.226813
-0.226786
-0.226762
-0.226741
-0.226725
-0.226709
-0.226700
-0.226694
-0.226689
-0.234118
-0.234089
-0.234066
-0.234042
-0.234025
-0.234010
-0.233999
-0.233991
-0.233986
-0.241468
-0.241441
-0.241417
-0.241393
-0.241374
-0.241358
-0.241345
-0.241336
-0.241329
-0.248864
-0.248836
-0.248809
-0.248787
-0.248767
-0.248751
-0.248734
-0.248726
-0.248717
-0.256303
-0.256273
-0.256246
-0.256221
-0.256202
-0.256181
-0.256168
-0.256155
-0.256145
-0.263775
-0.263745
-0.263717
-0.263693
-0.263672
-0.263653
-0.263636
-0.263621
-0.263611
-0.271284
-0.271253
-0.271225
-0.271198
-0.271176
-0.271157
-0.271138
-0.271124
-0.271110
-0.278821
-0.278789
-0.278761
-0.278735
-0.278713
-0.278690
-0.278671
-0.278654
-0.278640
-0.286384
-0.286353
-0.286325
-0.286298
-0.286273
-0.286250
-0.286229
-0.286212
-0.286198
-0.293973
-0.293940
-0.293910
-0.293883
-0.293857
-0.293834
-0.293813
-0.293793
-0.293777
-0.301582
-0.301548
-0.301518
-0.301490
-0.301464
-0.301440
-0.301417
-0.301397
-0.301378
-0.309209
-0.309174
-0.309142
-0.309113
-0.309086
-0.309060
-0.309037
-0.309016
-0.308996
-0.316847
-0.316814
-0.316782
-0.316750
-0.316724
-0.316697
-0.316672
-0.316649
-0.316629
-0.324499
-0.324465
-0.324431
-0.324401
-0.324371
-0.324344
-0.324319
-0.324294
-0.324273
-0.332156
-0.332121
-0.332088
-0.332057
-0.332027
-0.331999