# vtk DataFile Version 2.0
Generated volume Mesh
ASCII
DATASET UNSTRUCTURED_GRID
POINTS 891 float
0.005000 0.100000 0.000000
0.005000 0.000000 0.000000
0.005000 0.001250 0.000000
0.005000 0.002500 0.000000
0.005000 0.003750 0.000000
0.005000 0.005000 0.000000
0.005000 0.006250 0.000000
0.005000 0.007500 0.000000
0.005000 0.008750 0.000000
0.005000 0.010000 0.000000
0.005000 0.011250 0.000000
0.005000 0.012500 0.000000
0.005000 0.013750 0.000000
0.005000 0.015000 0.000000
0.005000 0.016250 0.000000
0.005000 0.017500 0.000000
0.005000 0.018750 0.000000
0.005000 0.020000 0.000000
0.005000 0.021250 0.000000
0.005000 0.022500 0.000000
0.005000 0.023750 0.000000
0.005000 0.025000 0.000000
0.005000 0.026250 0.000000
0.005000 0.027500 0.000000
0.005000 0.028750 0.000000
0.005000 0.030000 0.000000
0.005000 0.031250 0.000000
0.005000 0.032500 0.000000
0.005000 0.033750 0.000000
0.005000 0.035000 0.000000
0.005000 0.036250 0.000000
0.005000 0.037500 0.000000
0.005000 0.038750 0.000000
0.005000 0.040000 0.000000
0.005000 0.041250 0.000000
0.005000 0.042500 0.000000
0.005000 0.043750 0.000000
0.005000 0.045000 0.000000
0.005000 0.046250 0.000000
0.005000 0.047500 0.000000
0.005000 0.048750 0.000000
0.005000 0.050000 0.000000
0.005000 0.051250 0.000000
0.005000 0.052500 0.000000
0.005000 0.053750 0.000000
0.005000 0.055000 0.000000
0.005000 0.056250 0.000000
0.005000 0.057500 0.000000
0.005000 0.058750 0.000000
0.005000 0.060000 0.000000
0.005000 0.061250 0.000000
0.005000 0.062500 0.000000
0.005000 0.063750 0.000000
0.005000 0.065000 0.000000
0.005000 0.066250 0.000000
0.005000 0.067500 0.000000
0.005000 0.068750 0.000000
0.005000 0.070000 0.000000
0.005000 0.071250 0.000000
0.005000 0.072500 0.000000
0.005000 0.073750 0.000000
0.005000 0.075000 0.000000
0.005000 0.076250 0.000000
0.005000 0.077500 0.000000
0.005000 0.078750 0.000000
0.005000 0.080000 0.000000
0.005000 0.081250 0.000000
0.005000 0.082500 0.000000
0.005000 0.083750 0.000000
0.005000 0.085000 0.000000
0.005000 0.086250 0.000000
0.005000 0.087500 0.000000
0.005000 0.088750 0.000000
0.005000 0.090000 0.000000
0.005000 0.091250 0.000000
0.005000 0.092500 0.000000
0.005000 0.093750 0.000000
0.005000 0.095000 0.000000
0.005000 0.096250 0.000000
0.005000 0.097500 0.000000
0.005000 0.098750 0.000000
0.000000 0.000000 0.000000
0.000000 0.100000 0.000000
0.000000 0.098750 0.000000
0.000000 0.097500 0.000000
0.000000 0.096250 0.000000
0.000000 0.095000 0.000000
0.000000 0.093750 0.000000
0.000000 0.092500 0.000000
0.000000 0.091250 0.000000
0.000000 0.090000 0.000000
0.000000 0.088750 0.000000
0.000000 0.087500 0.000000
0.000000 0.086250 0.000000
0.000000 0.085000 0.000000
0.000000 0.083750 0.000000
0.000000 0.082500 0.000000
0.000000 0.081250 0.000000
0.000000 0.080000 0.000000
0.000000 0.078750 0.000000
0.000000 0.077500 0.000000
0.000000 0.076250 0.000000
0.000000 0.075000 0.000000
0.000000 0.073750 0.000000
0.000000 0.072500 0.000000
0.000000 0.071250 0.000000
0.000000 0.070000 0.000000
0.000000 0.068750 0.000000
0.000000 0.067500 0.000000
0.000000 0.066250 0.000000
0.000000 0.065000 0.000000
0.000000 0.063750 0.000000
0.000000 0.062500 0.000000
0.000000 0.061250 0.000000
0.000000 0.060000 0.000000
0.000000 0.058750 0.000000
0.000000 0.057500 0.000000
0.000000 0.056250 0.000000
0.000000 0.055000 0.000000
0.000000 0.053750 0.000000
0.000000 0.052500 0.000000
0.000000 0.051250 0.000000
0.000000 0.050000 0.000000
0.000000 0.048750 0.000000
0.000000 0.047500 0.000000
0.000000 0.046250 0.000000
0.000000 0.045000 0.000000
0.000000 0.043750 0.000000
0.000000 0.042500 0.000000
0.000000 0.041250 0.000000
0.000000 0.040000 0.000000
0.000000 0.038750 0.000000
0.000000 0.037500 0.000000
0.000000 0.036250 0.000000
0.000000 0.035000 0.000000
0.000000 0.033750 0.000000
0.000000 0.032500 0.000000
0.000000 0.031250 0.000000
0.000000 0.030000 0.000000
0.000000 0.028750 0.000000
0.000000 0.027500 0.000000
0.000000 0.026250 0.000000
0.000000 0.025000 0.000000
0.000000 0.023750 0.000000
0.000000 0.022500 0.000000
0.000000 0.021250 0.000000
0.000000 0.020000 0.000000
0.000000 0.018750 0.000000
0.000000 0.017500 0.000000
0.000000 0.016250 0.000000
0.000000 0.015000 0.000000
0.000000 0.013750 0.000000
0.000000 0.012500 0.000000
0.000000 0.011250 0.000000
0.000000 0.010000 0.000000
0.000000 0.008750 0.000000
0.000000 0.007500 0.000000
0.000000 0.006250 0.000000
0.000000 0.005000 0.000000
0.000000 0.003750 0.000000
0.000000 0.002500 0.000000
0.000000 0.001250 0.000000
0.000500 0.000000 0.000000
0.001000 0.000000 0.000000
0.001500 0.000000 0.000000
0.002000 0.000000 0.000000
0.002500 0.000000 0.000000
0.003000 0.000000 0.000000
0.003500 0.000000 0.000000
0.004000 0.000000 0.000000
0.004500 0.000000 0.000000
0.004500 0.100000 0.000000
0.004000 0.100000 0.000000
0.003500 0.100000 0.000000
0.003000 0.100000 0.000000
0.002500 0.100000 0.000000
0.002000 0.100000 0.000000
0.001500 0.100000 0.000000
0.001000 0.100000 0.000000
0.000500 0.100000 0.000000
0.000500 0.098750 0.000000
0.001000 0.098750 0.000000
0.001500 0.098750 0.000000
0.002000 0.098750 0.000000
0.002500 0.098750 0.000000
0.003000 0.098750 0.000000
0.003500 0.098750 0.000000
0.004000 0.098750 0.000000
0.004500 0.098750 0.000000
0.000500 0.097500 0.000000
0.001000 0.097500 0.000000
0.001500 0.097500 0.000000
0.002000 0.097500 0.000000
0.002500 0.097500 0.000000
0.003000 0.097500 0.000000
0.003500 0.097500 0.000000
0.004000 0.097500 0.000000
0.004500 0.097500 0.000000
0.000500 0.096250 0.000000
0.001000 0.096250 0.000000
0.001500 0.096250 0.000000
0.002000 0.096250 0.000000
0.002500 0.096250 0.000000
0.003000 0.096250 0.000000
0.003500 0.096250 0.000000
0.004000 0.096250 0.000000
0.004500 0.096250 0.000000
0.000500 0.095000 0.000000
0.001000 0.095000 0.000000
0.001500 0.095000 0.000000
0.002000 0.095000 0.000000
0.002500 0.095000 0.000000
0.003000 0.095000 0.000000
0.003500 0.095000 0.000000
0.004000 0.095000 0.000000
0.004500 0.095000 0.000000
0.000500 0.093750 0.000000
0.001000 0.093750 0.000000
0.001500 0.093750 0.000000
0.002000 0.093750 0.000000
0.002500 0.093750 0.000000
0.003000 0.093750 0.000000
0.003500 0.093750 0.000000
0.004000 0.093750 0.000000
0.004500 0.093750 0.000000
0.000500 0.092500 0.000000
0.001000 0.092500 0.000000
0.001500 0.092500 0.000000
0.002000 0.092500 0.000000
0.002500 0.092500 0.000000
0.003000 0.092500 0.000000
0.003500 0.092500 0.000000
0.004000 0.092500 0.000000
0.004500 0.092500 0.000000
0.000500 0.091250 0.000000
0.001000 0.091250 0.000000
0.001500 0.091250 0.000000
0.002000 0.091250 0.000000
0.002500 0.091250 0.000000
0.003000 0.091250 0.000000
0.003500 0.091250 0.000000
0.004000 0.091250 0.000000
0.004500 0.091250 0.000000
0.000500 0.090000 0.000000
0.001000 0.090000 0.000000
0.001500 0.090000 0.000000
0.002000 0.090000 0.000000
0.002500 0.090000 0.000000
0.003000 0.090000 0.000000
0.003500 0.090000 0.000000
0.004000 0.090000 0.000000
0.004500 0.090000 0.000000
0.000500 0.088750 0.000000
0.001000 0.088750 0.000000
0.001500 0.088750 0.000000
0.002000 0.088750 0.000000
0.002500 0.088750 0.000000
0.003000 0.088750 0.000000
0.003500 0.088750 0.000000
0.004000 0.088750 0.000000
0.004500 0.088750 0.000000
0.000500 0.087500 0.000000
0.001000 0.087500 0.000000
0.001500 0.087500 0.000000
0.002000 0.087500 0.000000
0.002500 0.087500 0.000000
0.003000 0.087500 0.000000
0.003500 0.087500 0.000000
0.004000 0.087500 0.000000
0.004500 0.087500 0.000000
0.000500 0.086250 0.000000
0.001000 0.086250 0.000000
0.001500 0.086250 0.000000
0.002000 0.086250 0.000000
0.002500 0.086250 0.000000
0.003000 0.086250 0.000000
0.003500 0.086250 0.000000
0.004000 0.086250 0.000000
0.004500 0.086250 0.000000
0.000500 0.085000 0.000000
0.001000 0.085000 0.000000
0.001500 0.085000 0.000000
0.002000 0.085000 0.000000
0.002500 0.085000 0.000000
0.003000 0.085000 0.000000
0.003500 0.085000 0.000000
0.004000 0.085000 0.000000
0.004500 0.085000 0.000000
0.000500 0.083750 0.000000
0.001000 0.083750 0.000000
0.001500 0.083750 0.000000
0.002000 0.083750 0.000000
0.002500 0.083750 0.000000
0.003000 0.083750 0.000000
0.003500 0.083750 0.000000
0.004000 0.083750 0.000000
0.004500 0.083750 0.000000
0.000500 0.082500 0.000000
0.001000 0.082500 0.000000
0.001500 0.082500 0.000000
0.002000 0.082500 0.000000
0.002500 0.082500 0.000000
0.003000 0.082500 0.000000
0.003500 0.082500 0.000000
0.004000 0.082500 0.000000
0.004500 0.082500 0.000000
0.000500 0.081250 0.000000
0.001000 0.081250 0.000000
0.001500 0.081250 0.000000
0.002000 0.081250 0.000000
0.002500 0.081250 0.000000
0.003000 0.081250 0.000000
0.003500 0.081250 0.000000
0.004000 0.081250 0.000000
0.004500 0.081250 0.000000
0.000500 0.080000 0.000000
0.001000 0.080000 0.000000
0.001500 0.080000 0.000000
0.002000 0.080000 0.000000
0.002500 0.080000 0.000000
0.003000 0.080000 0.000000
0.003500 0.080000 0.000000
0.004000 0.080000 0.000000
0.004500 0.080000 0.000000
0.000500 0.078750 0.000000
0.001000 0.078750 0.000000
0.001500 0.078750 0.000000
0.002000 0.078750 0.000000
0.002500 0.078750 0.000000
0.003000 0.078750 0.000000
0.003500 0.078750 0.000000
0.004000 0.078750 0.000000
0.004500 0.078750 0.000000
0.000500 0.077500 0.000000
0.001000 0.077500 0.000000
0.001500 0.077500 0.000000
0.002000 0.077500 0.000000
0.002500 0.077500 0.000000
0.003000 0.077500 0.000000
0.003500 0.077500 0.000000
0.004000 0.077500 0.000000
0.004500 0.077500 0.000000
0.000500 0.076250 0.000000
0.001000 0.076250 0.000000
0.001500 0.076250 0.000000
0.002000 0.076250 0.000000
0.002500 0.076250 0.000000
0.003000 0.076250 0.000000
0.003500 0.076250 0.000000
0.004000 0.076250 0.000000
0.004500 0.076250 0.000000
0.000500 0.075000 0.000000
0.001000 0.075000 0.000000
0.001500 0.075000 0.000000
0.002000 0.075000 0.000000
0.002500 0.075000 0.000000
0.003000 0.075000 0.000000
0.003500 0.075000 0.000000
0.004000 0.075000 0.000000
0.004500 0.075000 0.000000
0.000500 0.073750 0.000000
0.001000 0.073750 0.000000
0.001500 0.073750 0.000000
0.002000 0.073750 0.000000
0.002500 0.073750 0.000000
0.003000 0.073750 0.000000
[...]
POINT_DATA 891
SCALARS u1 float
LOOKUP_TABLE default
-4e-16
-1e-06
-1e-06
-1e-06
-1e-06
-1e-06
-1e-06
-1e-06
-1e-06
-1e-06
-1e-06
-1e-06
-1e-06
-1e-06
-1e-06
-1e-06
-1e-06
-1e-06
-1e-06
-1e-06
-1e-06
-1e-06
-1e-06
-1e-06
-1e-06
-1e-06
-1e-06
-1e-06
-1e-06
-1e-06
-1e-06
-1e-06
-1e-06
-1e-06
-1e-06
-1e-06
-1e-06
-1e-06
-1e-06
-1e-06
-1e-06
-1e-06
-1e-06
-1e-06
-1e-06
-1e-06
-1e-06
-1e-06
-1e-06
-1e-06
-1e-06
-1e-06
-1e-06
-1e-06
-1e-06
-1e-06
-1e-06
-1e-06
-1e-06
-1e-06
-1e-06
-1e-06
-1e-06
-1e-06
-1e-06
-1e-06
-1e-06
-1e-06
-1e-06
-1e-06
-1e-06
-1e-06
-1e-06
-1e-06
-1e-06
-1e-06
-1e-06
-1e-06
-1e-06
-1e-06
-1e-06
1e-06
4e-16
1e-06
1e-06
1e-06
1e-06
1e-06
1e-06
1e-06
1e-06
1e-06
1e-06
1e-06
1e-06
1e-06
1e-06
1e-06
1e-06
1e-06
1e-06
1e-06
1e-06
1e-06
1e-06
1e-06
1e-06
1e-06
1e-06
1e-06
1e-06
1e-06
1e-06
1e-06
1e-06
1e-06
1e-06
1e-06
1e-06
1e-06
1e-06
1e-06
1e-06
1e-06
1e-06
1e-06
1e-06
1e-06
1e-06
1e-06
1e-06
1e-06
1e-06
1e-06
1e-06
1e-06
1e-06
1e-06
1e-06
1e-06
1e-06
1e-06
1e-06
1e-06
1e-06
1e-06
1e-06
1e-06
1e-06
1e-06
1e-06
1e-06
1e-06
1e-06
1e-06
1e-06
1e-06
1e-06
1e-06
1e-06
1e-06
1e-06
1e-06
9e-07
6e-07
3e-07
-7e-14
-3e-07
-6e-07
-9e-07
-1e-06
-9e-16
-9e-17
7e-16
1e-16
1e-15
3e-17
-4e-16
3e-16
-2e-16
8e-07
6e-07
3e-07
2e-07
-1e-14
-2e-07
-3e-07
-6e-07
-8e-07
1e-06
8e-07
6e-07
3e-07
-6e-15
-3e-07
-6e-07
-8e-07
-1e-06
1e-06
9e-07
6e-07
3e-07
-2e-14
-3e-07
-6e-07
-9e-07
-1e-06
1e-06
9e-07
6e-07
3e-07
-2e-14
-3e-07
-6e-07
-9e-07
-1e-06
1e-06
9e-07
6e-07
3e-07
-3e-14
-3e-07
-6e-07
-9e-07
-1e-06
1e-06
9e-07
6e-07
3e-07
-4e-14
-3e-07
-6e-07
-9e-07
-1e-06
1e-06
9e-07
6e-07
3e-07
-4e-14
-3e-07
-6e-07
-9e-07
-1e-06
1e-06
9e-07
6e-07
3e-07
-5e-14
-3e-07
-6e-07
-9e-07
-1e-06
1e-06
9e-07
6e-07
3e-07
-6e-14
-3e-07
-6e-07
-9e-07
-1e-06
1e-06
9e-07
6e-07
3e-07
-6e-14
-3e-07
-6e-07
-9e-07
-1e-06
1e-06
9e-07
6e-07
3e-07
-6e-14
-3e-07
-6e-07
-9e-07
-1e-06
1e-06
9e-07
6e-07
3e-07
-7e-14
-3e-07
-6e-07
-9e-07
-1e-06
1e-06
9e-07
6e-07
3e-07
-7e-14
-3e-07
-6e-07
-9e-07
-1e-06
1e-06
9e-07
6e-07
3e-07
-7e-14
-3e-07
-6e-07
-9e-07
-1e-06
1e-06
9e-07
6e-07
3e-07
-7e-14
-3e-07
-6e-07
-9e-07
-1e-06
1e-06
9e-07
6e-07
3e-07
-7e-14
-3e-07
-6e-07
-9e-07
-1e-06
1e-06
9e-07
6e-07
3e-07
-7e-14
-3e-07
-6e-07
-9e-07
-1e-06
1e-06
9e-07
6e-07
3e-07
-7e-14
-3e-07
-6e-07
-9e-07
-1e-06
1e-06
9e-07
6e-07
3e-07
-7e-14
-3e-07
-6e-07
-9e-07
-1e-06
1e-06
9e-07
6e-07
3e-07
-8e-14
-3e-07
-6e-07
-9e-07
-1e-06
1e-06
9e-07
6e-07
3e-07
-8e-14
-3e-07
-6e-07
-9e-07
-1e-06
1e-06
9e-07
6e-07
3e-07
-8e-14
-3e-07
-6e-07
-9e-07
-1e-06
1e-06
9e-07
6e-07
3e-07
-8e-14
-3e-07
-6e-07
-9e-07
-1e-06
1e-06
9e-07
6e-07
3e-07
-8e-14
-3e-07
-6e-07
-9e-07
-1e-06
1e-06
9e-07
6e-07
3e-07
-8e-14
-3e-07
-6e-07
-9e-07
-1e-06
1e-06
9e-07
6e-07
3e-07
-8e-14
-3e-07
-6e-07
-9e-07
-1e-06
1e-06
9e-07
6e-07
3e-07
-7e-14
-3e-07
-6e-07
-9e-07
-1e-06
1e-06
9e-07
6e-07
3e-07
-7e-14
-3e-07
-6e-07
-9e-07
-1e-06
1e-06
9e-07
6e-07
3e-07
-7e-14
-3e-07
-6e-07
-9e-07
-1e-06
1e-06
9e-07
6e-07
3e-07
-7e-14
-3e-07
-6e-07
-9e-07
-1e-06
1e-06
9e-07
6e-07
3e-07
-7e-14
-3e-07
-6e-07
-9e-07
-1e-06
1e-06
9e-07
6e-07
3e-07
-7e-14
-3e-07
-6e-07
-9e-07
-1e-06
1e-06
9e-07
6e-07
3e-07
-7e-14
-3e-07
-6e-07
-9e-07
-1e-06
1e-06
9e-07
6e-07
3e-07
-7e-14
-3e-07
-6e-07
-9e-07
-1e-06
1e-06
9e-07
6e-07
3e-07
-7e-14
-3e-07
-6e-07
-9e-07
-1e-06
1e-06
9e-07
6e-07
3e-07
-7e-14
-3e-07
-6e-07
-9e-07
-1e-06
1e-06
9e-07
6e-07
3e-07
-7e-14
-3e-07
-6e-07
-9e-07
-1e-06
1e-06
9e-07
6e-07
3e-07
-7e-14
-3e-07
-6e-07
-9e-07
-1e-06
1e-06
9e-07
6e-07
3e-07
-7e-14
-3e-07
-6e-07
-9e-07
-1e-06
1e-06
9e-07
6e-07
3e-07
-7e-14
-3e-07
-6e-07
-9e-07
-1e-06
1e-06
9e-07
6e-07
3e-07
-7e-14
-3e-07
-6e-07
-9e-07
-1e-06
1e-06
9e-07
6e-07
3e-07
-7e-14
-3e-07
-6e-07
-9e-07
-1e-06
1e-06
9e-07
6e-07
3e-07
-7e-14
-3e-07
-6e-07
-9e-07
-1e-06
1e-06
9e-07
6e-07
3e-07
-7e-14
-3e-07
-6e-07
-9e-07
-1e-06
1e-06
9e-07
6e-07
3e-07
-7e-14
-3e-07
-6e-07
-9e-07
-1e-06
1e-06
9e-07
6e-07
3e-07
-7e-14
-3e-07
-6e-07
-9e-07
-1e-06
1e-06
9e-07
6e-07
3e-07
-7e-14
-3e-07
-6e-07
-9e-07
-1e-06
1e-06
9e-07
6e-07
3e-07
-7e-14
-3e-07
-6e-07
-9e-07
-1e-06
1e-06
9e-07
6e-07
3e-07
-7e-14
-3e-07
-6e-07
-9e-07
-1e-06
1e-06
9e-07
6e-07
3e-07
-7e-14
-3e-07
-6e-07
-9e-07
-1e-06
1e-06
9e-07
6e-07
3e-07
-7e-14
-3e-07
-6e-07
-9e-07
-1e-06
1e-06
9e-07
6e-07
3e-07
-7e-14
-3e-07
-6e-07
-9e-07
-1e-06
1e-06
9e-07
6e-07
3e-07
-7e-14
-3e-07
-6e-07
-9e-07
-1e-06
1e-06
9e-07
6e-07
3e-07
-7e-14
-3e-07
-6e-07
-9e-07
-1e-06
1e-06
9e-07
6e-07
3e-07
-7e-14
-3e-07
-6e-07
-9e-07
-1e-06
1e-06
9e-07
6e-07
3e-07
-7e-14
-3e-07
-6e-07
-9e-07
-1e-06
1e-06
9e-07
6e-07
3e-07
-7e-14
-3e-07
-6e-07
-9e-07
-1e-06
1e-06
9e-07
6e-07
3e-07
-7e-14
-3e-07
-6e-07
-9e-07
-1e-06
1e-06
9e-07
6e-07
3e-07
-7e-14
-3e-07
-6e-07
-9e-07
-1e-06
1e-06
9e-07
6e-07
3e-07
-7e-14
-3e-07
-6e-07
-9e-07
-1e-06
1e-06
9e-07
6e-07
3e-07
-7e-14
-3e-07
-6e-07
-9e-07
-1e-06
1e-06
9e-07
6e-07
3e-07
-7e-14
-3e-07
-6e-07
-9e-07
-1e-06
1e-06
9e-07
6e-07
3e-07
-7e-14
-3e-07
-6e-07
-9e-07
-1e-06
1e-06
9e-07
6e-07
3e-07
-7e-14
-3e-07
-6e-07
-9e-07
-1e-06
1e-06
9e-07
6e-07
3e-07
-7e-14
-3e-07
-6e-07
-9e-07
-1e-06
1e-06
9e-07
6e-07
3e-07
-7e-14
-3e-07
-6e-07
-9e-07
-1e-06
1e-06
9e-07
6e-07
3e-07
-7e-14
-3e-07
-6e-07
-9e-07
-1e-06
1e-06
9e-07
6e-07
3e-07
-7e-14
-3e-07
-6e-07
-9e-07
-1e-06
1e-06
9e-07
6e-07
3e-07
-7e-14
-3e-07
-6e-07
-9e-07
-1e-06
1e-06
9e-07
6e-07
3e-07
-7e-14
-3e-07
-6e-07
-9e-07
-1e-06
1e-06
9e-07
6e-07
3e-07
-7e-14
-3e-07
-6e-07
-9e-07
-1e-06
1e-06
9e-07
6e-07
3e-07
-7e-14
-3e-07
-6e-07
-9e-07
-1e-06
1e-06
9e-07
6e-07
3e-07
-7e-14
-3e-07
-6e-07
-9e-07
-1e-06
1e-06
9e-07
6e-07
3e-07
-7e-14
-3e-07
-6e-07
-9e-07
-1e-06
1e-06
9e-07
6e-07
3e-07
-7e-14
-3e-07
-6e-07
-9e-07
-1e-06
1e-06
9e-07
6e-07
3e-07
-7e-14
-3e-07
-6e-07
-9e-07
-1e-06
1e-06
9e-07
6e-07
3e-07
-7e-14
-3e-07
-6e-07
-9e-07
-1e-06
1e-06
9e-07
6e-07
3e-07
-7e-14
-3e-07
-6e-07
-9e-07
-1e-06
1e-06
9e-07
6e-07
3e-07
-7e-14
-3e-07
-6e-07
-9e-07
-1e-06
SCALARS u2 float
LOOKUP_TABLE default
6e-17
-0.0002
-0.0002
-0.0002
-0.0002
-0.0002
-0.0002
-0.0002
-0.0002
-0.0002
-0.0002
-0.0002
-0.0002
-0.0002
-0.0002
-0.0002
-0.0002
-0.0002
-0.0002
-0.0002
-0.0002
-0.0002
-0.0001
-0.0001
-0.0001
-0.0001
-0.0001
-0.0001
-0.0001
-0.0001
-0.0001
-0.0001
-0.0001
-0.0001
-0.0001
-0.0001
-0.0001
-0.0001
-0.0001
-0.0001
-0.0001
-0.0001
-0.0001
-0.0001
-9e-05
-9e-05
-9e-05
-9e-05
-8e-05
-8e-05
-8e-05
-8e-05
-7e-05
-7e-05
-7e-05
-7e-05
-6e-05
-6e-05
-6e-05
-6e-05
-5e-05
-5e-05
-5e-05
-5e-05
-4e-05
-4e-05
-4e-05
-4e-05
-3e-05
-3e-05
-3e-05
-3e-05
-2e-05
-2e-05
-2e-05
-2e-05
-1e-05
-1e-05
-7e-06
-5e-06
-3e-06
-0.0002
7e-16
-3e-06
-5e-06
-7e-06
-1e-05
-1e-05
-2e-05
-2e-05
-2e-05
-2e-05
-3e-05
-3e-05
-3e-05
-3e-05
-4e-05
-4e-05
-4e-05
-4e-05
-5e-05
-5e-05
-5e-05
-5e-05
-6e-05
-6e-05
-6e-05
-6e-05
-7e-05
-7e-05
-7e-05
-7e-05
-8e-05
-8e-05
-8e-05
-8e-05
-9e-05
-9e-05
-9e-05
-9e-05
-0.0001
-0.0001
-0.0001
-0.0001
-0.0001
-0.0001
-0.0001
-0.0001
-0.0001
-0.0001
-0.0001
-0.0001
-0.0001
-0.0001
-0.0001
-0.0001
-0.0001
-0.0001
-0.0001
-0.0001
-0.0001
-0.0001
-0.0002
-0.0002
-0.0002
-0.0002
-0.0002
-0.0002
-0.0002
-0.0002
-0.0002
-0.0002
-0.0002
-0.0002
-0.0002
-0.0002
-0.0002
-0.0002
-0.0002
-0.0002
-0.0002
-0.0002
-0.0002
-0.0002
-0.0002
-0.0002
-0.0002
-0.0002
-0.0002
-0.0002
-0.0002
6e-16
-7e-16
2e-16
2e-16
7e-16
-2e-15
-1e-15
8e-16
4e-16
-2e-06
-2e-06
-2e-06
-2e-06
-2e-06
-2e-06
-2e-06
-2e-06
-2e-06
-5e-06
-5e-06
-5e-06
-5e-06
-5e-06
-5e-06
-5e-06
-5e-06
-5e-06
-7e-06
-7e-06
-7e-06
-7e-06
-7e-06
-7e-06
-7e-06
-7e-06
-7e-06
-1e-05
-1e-05
-1e-05
-1e-05
-1e-05
-1e-05
-1e-05
-1e-05
-1e-05
-1e-05
-1e-05
-1e-05
-1e-05
-1e-05
-1e-05
-1e-05
-1e-05
-1e-05
-2e-05
-2e-05
-2e-05
-2e-05
-2e-05
-2e-05
-2e-05
-2e-05
-2e-05
-2e-05
-2e-05
-2e-05
-2e-05
-2e-05
-2e-05
-2e-05
-2e-05
-2e-05
-2e-05
-2e-05
-2e-05
-2e-05
-2e-05
-2e-05
-2e-05
-2e-05
-2e-05
-2e-05
-2e-05
-2e-05
-2e-05
-2e-05
-2e-05
-2e-05
-2e-05
-2e-05
-3e-05
-3e-05
-3e-05
-3e-05
-3e-05
-3e-05
-3e-05
-3e-05
-3e-05
-3e-05
-3e-05
-3e-05
-3e-05
-3e-05
-3e-05
-3e-05
-3e-05
-3e-05
-3e-05
-3e-05
-3e-05
-3e-05
-3e-05
-3e-05
-3e-05
-3e-05
-3e-05
-3e-05
-3e-05
-3e-05
-3e-05
-3e-05
-3e-05
-3e-05
-3e-05
-3e-05
-4e-05
-4e-05
-4e-05
-4e-05
-4e-05
-4e-05
-4e-05
-4e-05
-4e-05
-4e-05
-4e-05
-4e-05
-4e-05
-4e-05
-4e-05
-4e-05
-4e-05
-4e-05
-4e-05
-4e-05
-4e-05
-4e-05
-4e-05
-4e-05
-4e-05
-4e-05
-4e-05
-4e-05
-4e-05
-4e-05
-4e-05
-4e-05
-4e-05
-4e-05
-4e-05
-4e-05
-5e-05
-5e-05
-5e-05
-5e-05
-5e-05
-5e-05
-5e-05
-5e-05
-5e-05
-5e-05
-5e-05
-5e-05
-5e-05
-5e-05
-5e-05
-5e-05
-5e-05
-5e-05
-5e-05
-5e-05
-5e-05
-5e-05
-5e-05
-5e-05
-5e-05
-5e-05
-5e-05
-5e-05
-5e-05
-5e-05
-5e-05
-5e-05
-5e-05
-5e-05
-5e-05
-5e-05
-6e-05
-6e-05
-6e-05
-6e-05
-6e-05
-6e-05
-6e-05
-6e-05
-6e-05
-6e-05
-6e-05
-6e-05
-6e-05
-6e-05
-6e-05
-6e-05
-6e-05
-6e-05
-6e-05
-6e-05
-6e-05
-6e-05
-6e-05
-6e-05
-6e-05
-6e-05
-6e-05
-6e-05
-6e-05
-6e-05
-6e-05
-6e-05
-6e-05
-6e-05
-6e-05
-6e-05
-7e-05
-7e-05
-7e-05
-7e-05
-7e-05
-7e-05
-7e-05
-7e-05
-7e-05
-7e-05
-7e-05
-7e-05
-7e-05
-7e-05
-7e-05
-7e-05
-7e-05
-7e-05
-7e-05
-7e-05
-7e-05
-7e-05
-7e-05
-7e-05
-7e-05
-7e-05
-7e-05
-7e-05
-7e-05
-7e-05
-7e-05
-7e-05
-7e-05
-7e-05
-7e-05
-7e-05
-8e-05
-8e-05
-8e-05
-8e-05
-8e-05
-8e-05
-8e-05
-8e-05
-8e-05
-8e-05
-8e-05
-8e-05
-8e-05
-8e-05
-8e-05
-8e-05
-8e-05
-8e-05
-8e-05
-8e-05
-8e-05
-8e-05
-8e-05
-8e-05
-8e-05
-8e-05
-8e-05
-8e-05
-8e-05
-8e-05
-8e-05
-8e-05
-8e-05
-8e-05
-8e-05
-8e-05
-9e-05
-9e-05
-9e-05
-9e-05
-9e-05
-9e-05
-9e-05
-9e-05
-9e-05
-9e-05
-9e-05
-9e-05
-9e-05
-9e-05
-9e-05
-9e-05
-9e-05
-9e-05
-9e-05
-9e-05
-9e-05
-9e-05
-9e-05
-9e-05
-9e-05
-9e-05
-9e-05
-9e-05
-9e-05
-9e-05
-9e-05
-9e-05
-9e-05
-9e-05
-9e-05
-9e-05
-0.0001
-0.0001
-0.0001
-0.0001
-0.0001
-0.0001
-0.0001
-0.0001
-0.0001
-0.0001
-0.0001
-0.0001
-0.0001
-0.0001
-0.0001
-0.0001
-0.0001
-0.0001
-0.0001
-0.0001
-0.0001
-0.0001
-0.0001
-0.0001
-0.0001
-0.0001
-0.0001
-0.0001
-0.0001
-0.0001
-0.0001
-0.0001
-0.0001
-0.0001
-0.0001
-0.0001
-0.0001
-0.0001
-0.0001
-0.0001
-0.0001
-0.0001
-0.0001
-0.0001
-0.0001
-0.0001
-0.0001
-0.0001
-0.0001
-0.0001
-0.0001
-0.0001
-0.0001
-0.0001
-0.0001
-0.0001
-0.0001
-0.0001
-0.0001
-0.0001
-0.0001
-0.0001
-0.0001
-0.0001
-0.0001
-0.0001
-0.0001
-0.0001
-0.0001
-0.0001
-0.0001
-0.0001
-0.0001
-0.0001
-0.0001
-0.0001
-0.0001
-0.0001
-0.0001
-0.0001
-0.0001
-0.0001
-0.0001
-0.0001
-0.0001
-0.0001
-0.0001
-0.0001
-0.0001
-0.0001
-0.0001
-0.0001
-0.0001
-0.0001
-0.0001
-0.0001
-0.0001
-0.0001
-0.0001
-0.0001
-0.0001
-0.0001
-0.0001
-0.0001
-0.0001
-0.0001
-0.0001
-0.0001
-0.0001
-0.0001
-0.0001
-0.0001
-0.0001
-0.0001
-0.0001
-0.0001
-0.0001
-0.0001
-0.0001
-0.0001
-0.0001
-0.0001
-0.0001
-0.0001
-0.0001
-0.0001
-0.0001
-0.0001
-0.0001
-0.0001
-0.0001
-0.0001
-0.0001
-0.0001
-0.0001
-0.0001
-0.0001
-0.0001
-0.0001
-0.0001
-0.0001
-0.0001
-0.0001
-0.0001
-0.0001
-0.0001
-0.0001
-0.0001
-0.0001
-0.0001
-0.0001
-0.0001
-0.0001
-0.0001
-0.0001
-0.0001
-0.0001
-0.0001
-0.0001
-0.0001
-0.0001
-0.0001
-0.0001
-0.0001
-0.0001
-0.0001
-0.0001
-0.0001
-0.0001
-0.0001
-0.0001
-0.0001
-0.0001
-0.0001
-0.0001
-0.0001
-0.0001
-0.0001
-0.0001
-0.0001
-0.0001
-0.0001
-0.0001
-0.0001
-0.0001
-0.0001
-0.0001
-0.0001
-0.0001
-0.0001
-0.0001
-0.0001
-0.0001
-0.0001
-0.0001
-0.0001
-0.0001
-0.0001
-0.0002
-0.0002
-0.0002
-0.0002
-0.0002
-0.0002
-0.0002
-0.0002
-0.0002
-0.0002
-0.0002
-0.0002
-0.0002
-0.0002
-0.0002
-0.0002
-0.0002
-0.0002
-0.0002
-0.0002
-0.0002
-0.0002
-0.0002
-0.0002
-0.0002
-0.0002
-0.0002
-0.0002
-0.0002
-0.0002
-0.0002
-0.0002
-0.0002
-0.0002
-0.0002
-0.0002
-0.0002
-0.0002
-0.0002
-0.0002
-0.0002
-0.0002
-0.0002
-0.0002
-0.0002
-0.0002
-0.0002
-0.0002
-0.0002
-0.0002
-0.0002
-0.0002
-0.0002
-0.0002
-0.0002
-0.0002
-0.0002
-0.0002
-0.0002
-0.0002
-0.0002
-0.0002
-0.0002
-0.0002
-0.0002
-0.0002
-0.0002
-0.0002
-0.0002
-0.0002
-0.0002
-0.0002
-0.0002
-0.0002
-0.0002
-0.0002
-0.0002
-0.0002
-0.0002
-0.0002
-0.0002
-0.0002
-0.0002
-0.0002
-0.0002
-0.0002
-0.0002
-0.0002
-0.0002
-0.0002
-0.0002
-0.0002
-0.0002
-0.0002
-0.0002
-0.0002
-0.0002
-0.0002
-0.0002
-0.0002
-0.0002
-0.0002
-0.0002
-0.0002
-0.0002
-0.0002
-0.0002
-0.0002
-0.0002
-0.0002
-0.0002
-0.0002
-0.0002
-0.0002
-0.0002
-0.0002
-0.0002
-0.0002
-0.0002
-0.0002
-0.0002
-0.0002
-0.0002
-0.0002
-0.0002
-0.0002
-0.0002
-0.0002
-0.0002
-0.0002
-0.0002
-0.0002
-0.0002
-0.0002
-0.0002
-0.0002
-0.0002
-0.0002
-0.0002
-0.0002
-0.0002
-0.0002
-0.0002
-0.0002
-0.0002
-0.0002
-0.0002
-0.0002
-0.0002
-0.0002
-0.0002
-0.0002
-0.0002
-0.0002
-0.0002
-0.0002
-0.0002
-0.0002
-0.0002
-0.0002
-0.0002
-0.0002
-0.0002
-0.0002
-0.0002
-0.0002
-0.0002
-0.0002
-0.0002
-0.0002
-0.0002
-0.0002
-0.0002
-0.0002
-0.0002
-0.0002
-0.0002
-0.0002
-0.0002
-0.0002
SCALARS strain_1 float
LOOKUP_TABLE default
-0.000104
-0.165784
-0.163278
-0.160759
-0.158229
-0.155687
-0.153134
-0.150571
-0.147998
-0.145417
-0.142827
-0.140230
-0.137625
-0.135015
-0.132399
-0.129779
-0.127155
-0.124528
-0.121899
-0.119269
-0.116639
-0.114009
-0.111382
-0.108757
-0.106137
-0.103520
-0.100910
-0.098307
-0.095712
-0.093127
-0.090551
-0.087987
-0.085437
-0.082900
-0.080377
-0.077872
-0.075384
-0.072915
-0.070467
-0.068039
-0.065635
-0.063254
-0.060898
-0.058569
-0.056268
-0.053995
-0.051754
-0.049543
-0.047365
-0.045222
-0.043113
-0.041041
-0.039006
-0.037010
-0.035053
-0.033138
-0.031264
-0.029433
-0.027646
-0.025904
-0.024207
-0.022557
-0.020954
-0.019400
-0.017893
-0.016437
-0.015031
-0.013674
-0.012369
-0.011114
-0.009912
-0.008761
-0.007662
-0.006616
-0.005621
-0.004678
-0.003787
-0.002949
-0.002161
-0.001425
-0.000739
-0.165931
-0.000004
-0.000641
-0.001328
-0.002067
-0.002857
-0.003698
-0.004590
-0.005535
-0.006532
-0.007582
-0.008683
-0.009837
-0.011042
-0.012300
-0.013608
-0.014968
-0.016377
-0.017838
-0.019347
-0.020905
-0.022511
-0.024165
-0.025865
-0.027611
-0.029402
-0.031237
-0.033114
-0.035033
-0.036994
-0.038993
-0.041032
-0.043108
-0.045221
-0.047368
-0.049550
-0.051764
-0.054010
-0.056287
-0.058591
-0.060924
-0.063284
-0.065669
-0.068077
-0.070508
-0.072960
-0.075433
-0.077925
-0.080434
-0.082959
-0.085500
-0.088055
-0.090622
-0.093200
-0.095789
-0.098387
-0.100994
-0.103608
-0.106227
-0.108851
-0.111479
-0.114109
-0.116742
-0.119375
-0.122008
-0.124639
-0.127269
-0.129896
-0.132519
-0.135137
-0.137750
-0.140357
-0.142956
-0.145549
-0.148132
-0.150707
-0.153272
-0.155827
-0.158370
-0.160904
-0.163423
-0.165918
-0.165903
-0.165889
-0.165875
-0.165860
-0.165845
-0.165830
-0.165815
-0.165799
-0.000084
-0.000067
-0.000051
-0.000038
-0.000027
-0.000018
-0.000011
-0.000007
-0.000004
-0.000641
-0.000644
-0.000648
-0.000654
-0.000663
-0.000673
-0.000687
-0.000702
-0.000720
-0.001328
-0.001331
-0.001334
-0.001341
-0.001349
-0.001360
-0.001373
-0.001388
-0.001406
-0.002066
-0.002068
-0.002072
-0.002079
-0.002087
-0.002097
-0.002110
-0.002125
-0.002142
-0.002855
-0.002858
-0.002861
-0.002866
-0.002875
-0.002885
-0.002898
-0.002913
-0.002929
-0.003697
-0.003698
-0.003701
-0.003707
-0.003714
-0.003725
-0.003738
-0.003752
-0.003769
-0.004589
-0.004590
-0.004593
-0.004599
-0.004606
-0.004617
-0.004628
-0.004643
-0.004659
-0.005534
-0.005535
-0.005538
-0.005543
-0.005550
-0.005560
-0.005571
-0.005586
-0.005602
-0.006531
-0.006531
-0.006534
-0.006539
-0.006546
-0.006555
-0.006567
-0.006581
-0.006597
-0.007580
-0.007580
-0.007582
-0.007587
-0.007594
-0.007603
-0.007615
-0.007628
-0.007644
-0.008681
-0.008681
-0.008683
-0.008688
-0.008694
-0.008703
-0.008714
-0.008728
-0.008743
-0.009834
-0.009834
-0.009836
-0.009840
-0.009847
-0.009855
-0.009866
-0.009879
-0.009894
-0.011040
-0.011039
-0.011041
-0.011044
-0.011050
-0.011059
-0.011069
-0.011082
-0.011097
-0.012296
-0.012296
-0.012297
-0.012300
-0.012307
-0.012314
-0.012324
-0.012337
-0.012352
-0.013605
-0.013604
-0.013605
-0.013608
-0.013614
-0.013621
-0.013631
-0.013643
-0.013657
-0.014964
-0.014963
-0.014963
-0.014966
-0.014972
-0.014979
-0.014988
-0.015000
-0.015014
-0.016374
-0.016372
-0.016373
-0.016375
-0.016380
-0.016387
-0.016397
-0.016408
-0.016422
-0.017834
-0.017832
-0.017832
-0.017834
-0.017839
-0.017846
-0.017854
-0.017865
-0.017879
-0.019343
-0.019340
-0.019340
-0.019343
-0.019347
-0.019353
-0.019361
-0.019372
-0.019385
-0.020900
-0.020898
-0.020898
-0.020899
-0.020903
-0.020909
-0.020917
-0.020928
-0.020940
-0.022507
-0.022504
-0.022503
-0.022504
-0.022508
-0.022514
-0.022522
-0.022532
-0.022543
-0.024160
-0.024158
-0.024156
-0.024157
-0.024160
-0.024165
-0.024173
-0.024182
-0.024194
-0.025860
-0.025856
-0.025855
-0.025856
-0.025859
-0.025864
-0.025871
-0.025880
-0.025891
-0.027606
-0.027602
-0.027600
-0.027601
-0.027603
-0.027608
-0.027614
-0.027623
-0.027634
-0.029396
-0.029392
-0.029390
-0.029390
-0.029392
-0.029397
-0.029403
-0.029411
-0.029421
-0.031230
-0.031226
-0.031224
-0.031224
-0.031225
-0.031230
-0.031235
-0.031243
-0.031252
-0.033108
-0.033103
-0.033101
-0.033100
-0.033101
-0.033105
-0.033110
-0.033118
-0.033126
-0.035026
-0.035022
-0.035020
-0.035018
-0.035019
-0.035022
-0.035027
-0.035034
-0.035043
-0.036986
-0.036981
-0.036979
-0.036977
-0.036978
-0.036981
-0.036985
-0.036991
-0.037000
-0.038987
-0.038981
-0.038978
-0.038976
-0.038977
-0.038979
-0.038983
-0.038988
-0.038996
-0.041025
-0.041019
-0.041016
-0.041014
-0.041014
-0.041016
-0.041019
-0.041025
-0.041032
-0.043101
-0.043095
-0.043091
-0.043089
-0.043088
-0.043090
-0.043093
-0.043098
-0.043105
-0.045213
-0.045207
-0.045203
-0.045200
-0.045200
-0.045200
-0.045203
-0.045208
-0.045214
-0.047360
-0.047354
-0.047350
-0.047347
-0.047346
-0.047346
-0.047349
-0.047352
-0.047359
-0.049541
-0.049535
-0.049531
-0.049527
-0.049526
-0.049526
-0.049527
-0.049532
-0.049537
-0.051756
-0.051749
-0.051744
-0.051740
-0.051738
-0.051738
-0.051740
-0.051742
-0.051747
-0.054002
-0.053994
-0.053989
-0.053985
-0.053983
-0.053982
-0.053983
-0.053986
-0.053990
-0.056278
-0.056270
-0.056265
-0.056261
-0.056258
-0.056257
-0.056257
-0.056260
-0.056263
-0.058583
-0.058575
-0.058569
-0.058565
-0.058562
-0.058560
-0.058560
-0.058562
-0.058565
-0.060916
-0.060908
-0.060902
-0.060897
-0.060893
-0.060892
-0.060891
-0.060892
-0.060894
-0.063275
-0.063267
-0.063260
-0.063255
-0.063251
-0.063249
-0.063248
-0.063249
-0.063251
-0.065659
-0.065651
-0.065644
-0.065639
-0.065635
-0.065631
-0.065630
-0.065630
-0.065631
-0.068067
-0.068059
-0.068051
-0.068046
-0.068042
-0.068038
-0.068036
-0.068036
-0.068037
-0.070498
-0.070490
-0.070482
-0.070476
-0.070472
-0.070468
-0.070465
-0.070465
-0.070465
-0.072950
-0.072941
-0.072934
-0.072927
-0.072922
-0.072919
-0.072916
-0.072914
-0.072915
-0.075423
-0.075414
-0.075406
-0.075399
-0.075394
-0.075389
-0.075387
-0.075385
-0.075384
-0.077915
-0.077905
-0.077897
-0.077890
-0.077884
-0.077879
-0.077876
-0.077874
-0.077872
-0.080423
-0.080414
-0.080405
-0.080398
-0.080391
-0.080386
-0.080383
-0.080380
-0.080378
-0.082949
-0.082939
-0.082930
-0.082923
-0.082916
-0.082911
-0.082906
-0.082903
-0.082900
-0.085489
-0.085479
-0.085471
-0.085462
-0.085455
-0.085450
-0.085445
-0.085441
-0.085438
-0.088043
-0.088033
-0.088024
-0.088016
-0.088008
-0.088002
-0.087997
-0.087993
-0.087989
-0.090610
-0.090600
-0.090591
-0.090582
-0.090574
-0.090568
-0.090562
-0.090558
-0.090554
-0.093189
-0.093178
-0.093169
-0.093160
-0.093152
-0.093145
-0.093139
-0.093134
-0.093130
-0.095778
-0.095767
-0.095757
-0.095748
-0.095740
-0.095733
-0.095727
-0.095721
-0.095716
-0.098376
-0.098365
-0.098355
-0.098346
-0.098338
-0.098330
-0.098323
-0.098317
-0.098312
-0.100982
-0.100972
-0.100961
-0.100952
-0.100943
-0.100934
-0.100928
-0.100921
-0.100915
-0.103596
-0.103584
-0.103574
-0.103564
-0.103555
-0.103546
-0.103539
-0.103531
-0.103526
-0.106215
-0.106204
-0.106192
-0.106182
-0.106173
-0.106164
-0.106157
-0.106149
-0.106142
-0.108839
-0.108827
-0.108817
-0.108806
-0.108796
-0.108787
-0.108779
-0.108771
-0.108764
-0.111467
-0.111454
-0.111443
-0.111433
-0.111423
-0.111414
-0.111405
-0.111397
-0.111389
-0.114097
-0.114085
-0.114074
-0.114063
-0.114053
-0.114043
-0.114034
-0.114025
-0.114017
-0.116729
-0.116717
-0.116705
-0.116694
-0.116684
-0.116674
-0.116665
-0.116656
-0.116647
-0.119362
-0.119350
-0.119338
-0.119327