# vtk DataFile Version 2.0
Generated volume Mesh
ASCII
DATASET UNSTRUCTURED_GRID
POINTS 891 float
0.005000 0.100000 0.000000
0.005000 0.000000 0.000000
0.005000 0.001250 0.000000
0.005000 0.002500 0.000000
0.005000 0.003750 0.000000
0.005000 0.005000 0.000000
0.005000 0.006250 0.000000
0.005000 0.007500 0.000000
0.005000 0.008750 0.000000
0.005000 0.010000 0.000000
0.005000 0.011250 0.000000
0.005000 0.012500 0.000000
0.005000 0.013750 0.000000
0.005000 0.015000 0.000000
0.005000 0.016250 0.000000
0.005000 0.017500 0.000000
0.005000 0.018750 0.000000
0.005000 0.020000 0.000000
0.005000 0.021250 0.000000
0.005000 0.022500 0.000000
0.005000 0.023750 0.000000
0.005000 0.025000 0.000000
0.005000 0.026250 0.000000
0.005000 0.027500 0.000000
0.005000 0.028750 0.000000
0.005000 0.030000 0.000000
0.005000 0.031250 0.000000
0.005000 0.032500 0.000000
0.005000 0.033750 0.000000
0.005000 0.035000 0.000000
0.005000 0.036250 0.000000
0.005000 0.037500 0.000000
0.005000 0.038750 0.000000
0.005000 0.040000 0.000000
0.005000 0.041250 0.000000
0.005000 0.042500 0.000000
0.005000 0.043750 0.000000
0.005000 0.045000 0.000000
0.005000 0.046250 0.000000
0.005000 0.047500 0.000000
0.005000 0.048750 0.000000
0.005000 0.050000 0.000000
0.005000 0.051250 0.000000
0.005000 0.052500 0.000000
0.005000 0.053750 0.000000
0.005000 0.055000 0.000000
0.005000 0.056250 0.000000
0.005000 0.057500 0.000000
0.005000 0.058750 0.000000
0.005000 0.060000 0.000000
0.005000 0.061250 0.000000
0.005000 0.062500 0.000000
0.005000 0.063750 0.000000
0.005000 0.065000 0.000000
0.005000 0.066250 0.000000
0.005000 0.067500 0.000000
0.005000 0.068750 0.000000
0.005000 0.070000 0.000000
0.005000 0.071250 0.000000
0.005000 0.072500 0.000000
0.005000 0.073750 0.000000
0.005000 0.075000 0.000000
0.005000 0.076250 0.000000
0.005000 0.077500 0.000000
0.005000 0.078750 0.000000
0.005000 0.080000 0.000000
0.005000 0.081250 0.000000
0.005000 0.082500 0.000000
0.005000 0.083750 0.000000
0.005000 0.085000 0.000000
0.005000 0.086250 0.000000
0.005000 0.087500 0.000000
0.005000 0.088750 0.000000
0.005000 0.090000 0.000000
0.005000 0.091250 0.000000
0.005000 0.092500 0.000000
0.005000 0.093750 0.000000
0.005000 0.095000 0.000000
0.005000 0.096250 0.000000
0.005000 0.097500 0.000000
0.005000 0.098750 0.000000
0.000000 0.000000 0.000000
0.000000 0.100000 0.000000
0.000000 0.098750 0.000000
0.000000 0.097500 0.000000
0.000000 0.096250 0.000000
0.000000 0.095000 0.000000
0.000000 0.093750 0.000000
0.000000 0.092500 0.000000
0.000000 0.091250 0.000000
0.000000 0.090000 0.000000
0.000000 0.088750 0.000000
0.000000 0.087500 0.000000
0.000000 0.086250 0.000000
0.000000 0.085000 0.000000
0.000000 0.083750 0.000000
0.000000 0.082500 0.000000
0.000000 0.081250 0.000000
0.000000 0.080000 0.000000
0.000000 0.078750 0.000000
0.000000 0.077500 0.000000
0.000000 0.076250 0.000000
0.000000 0.075000 0.000000
0.000000 0.073750 0.000000
0.000000 0.072500 0.000000
0.000000 0.071250 0.000000
0.000000 0.070000 0.000000
0.000000 0.068750 0.000000
0.000000 0.067500 0.000000
0.000000 0.066250 0.000000
0.000000 0.065000 0.000000
0.000000 0.063750 0.000000
0.000000 0.062500 0.000000
0.000000 0.061250 0.000000
0.000000 0.060000 0.000000
0.000000 0.058750 0.000000
0.000000 0.057500 0.000000
0.000000 0.056250 0.000000
0.000000 0.055000 0.000000
0.000000 0.053750 0.000000
0.000000 0.052500 0.000000
0.000000 0.051250 0.000000
0.000000 0.050000 0.000000
0.000000 0.048750 0.000000
0.000000 0.047500 0.000000
0.000000 0.046250 0.000000
0.000000 0.045000 0.000000
0.000000 0.043750 0.000000
0.000000 0.042500 0.000000
0.000000 0.041250 0.000000
0.000000 0.040000 0.000000
0.000000 0.038750 0.000000
0.000000 0.037500 0.000000
0.000000 0.036250 0.000000
0.000000 0.035000 0.000000
0.000000 0.033750 0.000000
0.000000 0.032500 0.000000
0.000000 0.031250 0.000000
0.000000 0.030000 0.000000
0.000000 0.028750 0.000000
0.000000 0.027500 0.000000
0.000000 0.026250 0.000000
0.000000 0.025000 0.000000
0.000000 0.023750 0.000000
0.000000 0.022500 0.000000
0.000000 0.021250 0.000000
0.000000 0.020000 0.000000
0.000000 0.018750 0.000000
0.000000 0.017500 0.000000
0.000000 0.016250 0.000000
0.000000 0.015000 0.000000
0.000000 0.013750 0.000000
0.000000 0.012500 0.000000
0.000000 0.011250 0.000000
0.000000 0.010000 0.000000
0.000000 0.008750 0.000000
0.000000 0.007500 0.000000
0.000000 0.006250 0.000000
0.000000 0.005000 0.000000
0.000000 0.003750 0.000000
0.000000 0.002500 0.000000
0.000000 0.001250 0.000000
0.000500 0.000000 0.000000
0.001000 0.000000 0.000000
0.001500 0.000000 0.000000
0.002000 0.000000 0.000000
0.002500 0.000000 0.000000
0.003000 0.000000 0.000000
0.003500 0.000000 0.000000
0.004000 0.000000 0.000000
0.004500 0.000000 0.000000
0.004500 0.100000 0.000000
0.004000 0.100000 0.000000
0.003500 0.100000 0.000000
0.003000 0.100000 0.000000
0.002500 0.100000 0.000000
0.002000 0.100000 0.000000
0.001500 0.100000 0.000000
0.001000 0.100000 0.000000
0.000500 0.100000 0.000000
0.000500 0.098750 0.000000
0.001000 0.098750 0.000000
0.001500 0.098750 0.000000
0.002000 0.098750 0.000000
0.002500 0.098750 0.000000
0.003000 0.098750 0.000000
0.003500 0.098750 0.000000
0.004000 0.098750 0.000000
0.004500 0.098750 0.000000
0.000500 0.097500 0.000000
0.001000 0.097500 0.000000
0.001500 0.097500 0.000000
0.002000 0.097500 0.000000
0.002500 0.097500 0.000000
0.003000 0.097500 0.000000
0.003500 0.097500 0.000000
0.004000 0.097500 0.000000
0.004500 0.097500 0.000000
0.000500 0.096250 0.000000
0.001000 0.096250 0.000000
0.001500 0.096250 0.000000
0.002000 0.096250 0.000000
0.002500 0.096250 0.000000
0.003000 0.096250 0.000000
0.003500 0.096250 0.000000
0.004000 0.096250 0.000000
0.004500 0.096250 0.000000
0.000500 0.095000 0.000000
0.001000 0.095000 0.000000
0.001500 0.095000 0.000000
0.002000 0.095000 0.000000
0.002500 0.095000 0.000000
0.003000 0.095000 0.000000
0.003500 0.095000 0.000000
0.004000 0.095000 0.000000
0.004500 0.095000 0.000000
0.000500 0.093750 0.000000
0.001000 0.093750 0.000000
0.001500 0.093750 0.000000
0.002000 0.093750 0.000000
0.002500 0.093750 0.000000
0.003000 0.093750 0.000000
0.003500 0.093750 0.000000
0.004000 0.093750 0.000000
0.004500 0.093750 0.000000
0.000500 0.092500 0.000000
0.001000 0.092500 0.000000
0.001500 0.092500 0.000000
0.002000 0.092500 0.000000
0.002500 0.092500 0.000000
0.003000 0.092500 0.000000
0.003500 0.092500 0.000000
0.004000 0.092500 0.000000
0.004500 0.092500 0.000000
0.000500 0.091250 0.000000
0.001000 0.091250 0.000000
0.001500 0.091250 0.000000
0.002000 0.091250 0.000000
0.002500 0.091250 0.000000
0.003000 0.091250 0.000000
0.003500 0.091250 0.000000
0.004000 0.091250 0.000000
0.004500 0.091250 0.000000
0.000500 0.090000 0.000000
0.001000 0.090000 0.000000
0.001500 0.090000 0.000000
0.002000 0.090000 0.000000
0.002500 0.090000 0.000000
0.003000 0.090000 0.000000
0.003500 0.090000 0.000000
0.004000 0.090000 0.000000
0.004500 0.090000 0.000000
0.000500 0.088750 0.000000
0.001000 0.088750 0.000000
0.001500 0.088750 0.000000
0.002000 0.088750 0.000000
0.002500 0.088750 0.000000
0.003000 0.088750 0.000000
0.003500 0.088750 0.000000
0.004000 0.088750 0.000000
0.004500 0.088750 0.000000
0.000500 0.087500 0.000000
0.001000 0.087500 0.000000
0.001500 0.087500 0.000000
0.002000 0.087500 0.000000
0.002500 0.087500 0.000000
0.003000 0.087500 0.000000
0.003500 0.087500 0.000000
0.004000 0.087500 0.000000
0.004500 0.087500 0.000000
0.000500 0.086250 0.000000
0.001000 0.086250 0.000000
0.001500 0.086250 0.000000
0.002000 0.086250 0.000000
0.002500 0.086250 0.000000
0.003000 0.086250 0.000000
0.003500 0.086250 0.000000
0.004000 0.086250 0.000000
0.004500 0.086250 0.000000
0.000500 0.085000 0.000000
0.001000 0.085000 0.000000
0.001500 0.085000 0.000000
0.002000 0.085000 0.000000
0.002500 0.085000 0.000000
0.003000 0.085000 0.000000
0.003500 0.085000 0.000000
0.004000 0.085000 0.000000
0.004500 0.085000 0.000000
0.000500 0.083750 0.000000
0.001000 0.083750 0.000000
0.001500 0.083750 0.000000
0.002000 0.083750 0.000000
0.002500 0.083750 0.000000
0.003000 0.083750 0.000000
0.003500 0.083750 0.000000
0.004000 0.083750 0.000000
0.004500 0.083750 0.000000
0.000500 0.082500 0.000000
0.001000 0.082500 0.000000
0.001500 0.082500 0.000000
0.002000 0.082500 0.000000
0.002500 0.082500 0.000000
0.003000 0.082500 0.000000
0.003500 0.082500 0.000000
0.004000 0.082500 0.000000
0.004500 0.082500 0.000000
0.000500 0.081250 0.000000
0.001000 0.081250 0.000000
0.001500 0.081250 0.000000
0.002000 0.081250 0.000000
0.002500 0.081250 0.000000
0.003000 0.081250 0.000000
0.003500 0.081250 0.000000
0.004000 0.081250 0.000000
0.004500 0.081250 0.000000
0.000500 0.080000 0.000000
0.001000 0.080000 0.000000
0.001500 0.080000 0.000000
0.002000 0.080000 0.000000
0.002500 0.080000 0.000000
0.003000 0.080000 0.000000
0.003500 0.080000 0.000000
0.004000 0.080000 0.000000
0.004500 0.080000 0.000000
0.000500 0.078750 0.000000
0.001000 0.078750 0.000000
0.001500 0.078750 0.000000
0.002000 0.078750 0.000000
0.002500 0.078750 0.000000
0.003000 0.078750 0.000000
0.003500 0.078750 0.000000
0.004000 0.078750 0.000000
0.004500 0.078750 0.000000
0.000500 0.077500 0.000000
0.001000 0.077500 0.000000
0.001500 0.077500 0.000000
0.002000 0.077500 0.000000
0.002500 0.077500 0.000000
0.003000 0.077500 0.000000
0.003500 0.077500 0.000000
0.004000 0.077500 0.000000
0.004500 0.077500 0.000000
0.000500 0.076250 0.000000
0.001000 0.076250 0.000000
0.001500 0.076250 0.000000
0.002000 0.076250 0.000000
0.002500 0.076250 0.000000
0.003000 0.076250 0.000000
0.003500 0.076250 0.000000
0.004000 0.076250 0.000000
0.004500 0.076250 0.000000
0.000500 0.075000 0.000000
0.001000 0.075000 0.000000
0.001500 0.075000 0.000000
0.002000 0.075000 0.000000
0.002500 0.075000 0.000000
0.003000 0.075000 0.000000
0.003500 0.075000 0.000000
0.004000 0.075000 0.000000
0.004500 0.075000 0.000000
0.000500 0.073750 0.000000
0.001000 0.073750 0.000000
0.001500 0.073750 0.000000
0.002000 0.073750 0.000000
0.002500 0.073750 0.000000
0.003000 0.073750 0.000000
[...]
POINT_DATA 891
SCALARS u1 float
LOOKUP_TABLE default
7e-16
-2e-06
-2e-06
-2e-06
-2e-06
-2e-06
-2e-06
-2e-06
-2e-06
-2e-06
-2e-06
-2e-06
-2e-06
-2e-06
-2e-06
-2e-06
-2e-06
-2e-06
-2e-06
-2e-06
-2e-06
-2e-06
-2e-06
-2e-06
-2e-06
-2e-06
-2e-06
-2e-06
-2e-06
-2e-06
-2e-06
-2e-06
-2e-06
-2e-06
-2e-06
-2e-06
-2e-06
-2e-06
-2e-06
-2e-06
-2e-06
-2e-06
-2e-06
-2e-06
-2e-06
-2e-06
-2e-06
-2e-06
-2e-06
-2e-06
-2e-06
-2e-06
-2e-06
-2e-06
-2e-06
-2e-06
-2e-06
-2e-06
-2e-06
-2e-06
-2e-06
-2e-06
-2e-06
-2e-06
-2e-06
-2e-06
-2e-06
-2e-06
-2e-06
-2e-06
-2e-06
-2e-06
-2e-06
-2e-06
-2e-06
-2e-06
-2e-06
-2e-06
-2e-06
-2e-06
-2e-06
2e-06
-2e-16
2e-06
2e-06
2e-06
2e-06
2e-06
2e-06
2e-06
2e-06
2e-06
2e-06
2e-06
2e-06
2e-06
2e-06
2e-06
2e-06
2e-06
2e-06
2e-06
2e-06
2e-06
2e-06
2e-06
2e-06
2e-06
2e-06
2e-06
2e-06
2e-06
2e-06
2e-06
2e-06
2e-06
2e-06
2e-06
2e-06
2e-06
2e-06
2e-06
2e-06
2e-06
2e-06
2e-06
2e-06
2e-06
2e-06
2e-06
2e-06
2e-06
2e-06
2e-06
2e-06
2e-06
2e-06
2e-06
2e-06
2e-06
2e-06
2e-06
2e-06
2e-06
2e-06
2e-06
2e-06
2e-06
2e-06
2e-06
2e-06
2e-06
2e-06
2e-06
2e-06
2e-06
2e-06
2e-06
2e-06
2e-06
2e-06
2e-06
2e-06
1e-06
1e-06
5e-07
5e-14
-5e-07
-1e-06
-1e-06
-2e-06
5e-16
-7e-16
-2e-16
-2e-16
1e-15
1e-15
-7e-16
-6e-16
-1e-16
1e-06
9e-07
6e-07
3e-07
2e-14
-3e-07
-6e-07
-9e-07
-1e-06
2e-06
1e-06
9e-07
5e-07
2e-14
-5e-07
-9e-07
-1e-06
-2e-06
2e-06
2e-06
1e-06
5e-07
4e-14
-5e-07
-1e-06
-2e-06
-2e-06
2e-06
2e-06
1e-06
5e-07
5e-14
-5e-07
-1e-06
-2e-06
-2e-06
2e-06
1e-06
1e-06
5e-07
5e-14
-5e-07
-1e-06
-1e-06
-2e-06
2e-06
1e-06
1e-06
5e-07
6e-14
-5e-07
-1e-06
-1e-06
-2e-06
2e-06
1e-06
1e-06
5e-07
6e-14
-5e-07
-1e-06
-1e-06
-2e-06
2e-06
1e-06
1e-06
5e-07
7e-14
-5e-07
-1e-06
-1e-06
-2e-06
2e-06
1e-06
1e-06
5e-07
7e-14
-5e-07
-1e-06
-1e-06
-2e-06
2e-06
1e-06
1e-06
5e-07
7e-14
-5e-07
-1e-06
-1e-06
-2e-06
2e-06
1e-06
1e-06
5e-07
7e-14
-5e-07
-1e-06
-1e-06
-2e-06
2e-06
1e-06
1e-06
5e-07
7e-14
-5e-07
-1e-06
-1e-06
-2e-06
2e-06
1e-06
1e-06
5e-07
6e-14
-5e-07
-1e-06
-1e-06
-2e-06
2e-06
1e-06
1e-06
5e-07
6e-14
-5e-07
-1e-06
-1e-06
-2e-06
2e-06
1e-06
1e-06
5e-07
6e-14
-5e-07
-1e-06
-1e-06
-2e-06
2e-06
1e-06
1e-06
5e-07
6e-14
-5e-07
-1e-06
-1e-06
-2e-06
2e-06
1e-06
1e-06
5e-07
6e-14
-5e-07
-1e-06
-1e-06
-2e-06
2e-06
1e-06
1e-06
5e-07
6e-14
-5e-07
-1e-06
-1e-06
-2e-06
2e-06
1e-06
1e-06
5e-07
6e-14
-5e-07
-1e-06
-1e-06
-2e-06
2e-06
1e-06
1e-06
5e-07
6e-14
-5e-07
-1e-06
-1e-06
-2e-06
2e-06
1e-06
1e-06
5e-07
6e-14
-5e-07
-1e-06
-1e-06
-2e-06
2e-06
1e-06
1e-06
5e-07
6e-14
-5e-07
-1e-06
-1e-06
-2e-06
2e-06
1e-06
1e-06
5e-07
5e-14
-5e-07
-1e-06
-1e-06
-2e-06
2e-06
1e-06
1e-06
5e-07
5e-14
-5e-07
-1e-06
-1e-06
-2e-06
2e-06
1e-06
1e-06
5e-07
5e-14
-5e-07
-1e-06
-1e-06
-2e-06
2e-06
1e-06
1e-06
5e-07
5e-14
-5e-07
-1e-06
-1e-06
-2e-06
2e-06
1e-06
1e-06
5e-07
5e-14
-5e-07
-1e-06
-1e-06
-2e-06
2e-06
1e-06
1e-06
5e-07
5e-14
-5e-07
-1e-06
-1e-06
-2e-06
2e-06
1e-06
1e-06
5e-07
5e-14
-5e-07
-1e-06
-1e-06
-2e-06
2e-06
1e-06
1e-06
5e-07
5e-14
-5e-07
-1e-06
-1e-06
-2e-06
2e-06
1e-06
1e-06
5e-07
5e-14
-5e-07
-1e-06
-1e-06
-2e-06
2e-06
1e-06
1e-06
5e-07
5e-14
-5e-07
-1e-06
-1e-06
-2e-06
2e-06
1e-06
1e-06
5e-07
5e-14
-5e-07
-1e-06
-1e-06
-2e-06
2e-06
1e-06
1e-06
5e-07
5e-14
-5e-07
-1e-06
-1e-06
-2e-06
2e-06
1e-06
1e-06
5e-07
5e-14
-5e-07
-1e-06
-1e-06
-2e-06
2e-06
1e-06
1e-06
5e-07
5e-14
-5e-07
-1e-06
-1e-06
-2e-06
2e-06
1e-06
1e-06
5e-07
5e-14
-5e-07
-1e-06
-1e-06
-2e-06
2e-06
1e-06
1e-06
5e-07
5e-14
-5e-07
-1e-06
-1e-06
-2e-06
2e-06
1e-06
1e-06
5e-07
5e-14
-5e-07
-1e-06
-1e-06
-2e-06
2e-06
1e-06
1e-06
5e-07
5e-14
-5e-07
-1e-06
-1e-06
-2e-06
2e-06
1e-06
1e-06
5e-07
5e-14
-5e-07
-1e-06
-1e-06
-2e-06
2e-06
1e-06
1e-06
5e-07
5e-14
-5e-07
-1e-06
-1e-06
-2e-06
2e-06
1e-06
1e-06
5e-07
5e-14
-5e-07
-1e-06
-1e-06
-2e-06
2e-06
1e-06
1e-06
5e-07
5e-14
-5e-07
-1e-06
-1e-06
-2e-06
2e-06
1e-06
1e-06
5e-07
5e-14
-5e-07
-1e-06
-1e-06
-2e-06
2e-06
1e-06
1e-06
5e-07
5e-14
-5e-07
-1e-06
-1e-06
-2e-06
2e-06
1e-06
1e-06
5e-07
5e-14
-5e-07
-1e-06
-1e-06
-2e-06
2e-06
1e-06
1e-06
5e-07
5e-14
-5e-07
-1e-06
-1e-06
-2e-06
2e-06
1e-06
1e-06
5e-07
5e-14
-5e-07
-1e-06
-1e-06
-2e-06
2e-06
1e-06
1e-06
5e-07
5e-14
-5e-07
-1e-06
-1e-06
-2e-06
2e-06
1e-06
1e-06
5e-07
5e-14
-5e-07
-1e-06
-1e-06
-2e-06
2e-06
1e-06
1e-06
5e-07
5e-14
-5e-07
-1e-06
-1e-06
-2e-06
2e-06
1e-06
1e-06
5e-07
5e-14
-5e-07
-1e-06
-1e-06
-2e-06
2e-06
1e-06
1e-06
5e-07
5e-14
-5e-07
-1e-06
-1e-06
-2e-06
2e-06
1e-06
1e-06
5e-07
5e-14
-5e-07
-1e-06
-1e-06
-2e-06
2e-06
1e-06
1e-06
5e-07
5e-14
-5e-07
-1e-06
-1e-06
-2e-06
2e-06
1e-06
1e-06
5e-07
5e-14
-5e-07
-1e-06
-1e-06
-2e-06
2e-06
1e-06
1e-06
5e-07
5e-14
-5e-07
-1e-06
-1e-06
-2e-06
2e-06
1e-06
1e-06
5e-07
5e-14
-5e-07
-1e-06
-1e-06
-2e-06
2e-06
1e-06
1e-06
5e-07
5e-14
-5e-07
-1e-06
-1e-06
-2e-06
2e-06
1e-06
1e-06
5e-07
5e-14
-5e-07
-1e-06
-1e-06
-2e-06
2e-06
1e-06
1e-06
5e-07
5e-14
-5e-07
-1e-06
-1e-06
-2e-06
2e-06
1e-06
1e-06
5e-07
5e-14
-5e-07
-1e-06
-1e-06
-2e-06
2e-06
1e-06
1e-06
5e-07
5e-14
-5e-07
-1e-06
-1e-06
-2e-06
2e-06
1e-06
1e-06
5e-07
5e-14
-5e-07
-1e-06
-1e-06
-2e-06
2e-06
1e-06
1e-06
5e-07
5e-14
-5e-07
-1e-06
-1e-06
-2e-06
2e-06
1e-06
1e-06
5e-07
5e-14
-5e-07
-1e-06
-1e-06
-2e-06
2e-06
1e-06
1e-06
5e-07
5e-14
-5e-07
-1e-06
-1e-06
-2e-06
2e-06
1e-06
1e-06
5e-07
5e-14
-5e-07
-1e-06
-1e-06
-2e-06
2e-06
1e-06
1e-06
5e-07
5e-14
-5e-07
-1e-06
-1e-06
-2e-06
2e-06
1e-06
1e-06
5e-07
5e-14
-5e-07
-1e-06
-1e-06
-2e-06
2e-06
1e-06
1e-06
5e-07
5e-14
-5e-07
-1e-06
-1e-06
-2e-06
2e-06
1e-06
1e-06
5e-07
5e-14
-5e-07
-1e-06
-1e-06
-2e-06
2e-06
1e-06
1e-06
5e-07
5e-14
-5e-07
-1e-06
-1e-06
-2e-06
2e-06
1e-06
1e-06
5e-07
5e-14
-5e-07
-1e-06
-1e-06
-2e-06
2e-06
1e-06
1e-06
5e-07
5e-14
-5e-07
-1e-06
-1e-06
-2e-06
2e-06
1e-06
1e-06
5e-07
5e-14
-5e-07
-1e-06
-1e-06
-2e-06
2e-06
1e-06
1e-06
5e-07
5e-14
-5e-07
-1e-06
-1e-06
-2e-06
2e-06
1e-06
1e-06
5e-07
5e-14
-5e-07
-1e-06
-1e-06
-2e-06
SCALARS u2 float
LOOKUP_TABLE default
-8e-16
-0.0003
-0.0003
-0.0003
-0.0003
-0.0003
-0.0003
-0.0003
-0.0003
-0.0003
-0.0003
-0.0003
-0.0003
-0.0003
-0.0003
-0.0002
-0.0002
-0.0002
-0.0002
-0.0002
-0.0002
-0.0002
-0.0002
-0.0002
-0.0002
-0.0002
-0.0002
-0.0002
-0.0002
-0.0002
-0.0002
-0.0002
-0.0002
-0.0002
-0.0002
-0.0002
-0.0002
-0.0002
-0.0002
-0.0002
-0.0002
-0.0002
-0.0001
-0.0001
-0.0001
-0.0001
-0.0001
-0.0001
-0.0001
-0.0001
-0.0001
-0.0001
-0.0001
-0.0001
-0.0001
-0.0001
-9e-05
-9e-05
-9e-05
-8e-05
-8e-05
-8e-05
-7e-05
-7e-05
-6e-05
-6e-05
-6e-05
-5e-05
-5e-05
-4e-05
-4e-05
-4e-05
-3e-05
-3e-05
-3e-05
-2e-05
-2e-05
-1e-05
-1e-05
-7e-06
-4e-06
-0.0003
-4e-16
-4e-06
-7e-06
-1e-05
-1e-05
-2e-05
-2e-05
-3e-05
-3e-05
-3e-05
-4e-05
-4e-05
-4e-05
-5e-05
-5e-05
-6e-05
-6e-05
-6e-05
-7e-05
-7e-05
-8e-05
-8e-05
-8e-05
-9e-05
-9e-05
-9e-05
-0.0001
-0.0001
-0.0001
-0.0001
-0.0001
-0.0001
-0.0001
-0.0001
-0.0001
-0.0001
-0.0001
-0.0001
-0.0001
-0.0001
-0.0002
-0.0002
-0.0002
-0.0002
-0.0002
-0.0002
-0.0002
-0.0002
-0.0002
-0.0002
-0.0002
-0.0002
-0.0002
-0.0002
-0.0002
-0.0002
-0.0002
-0.0002
-0.0002
-0.0002
-0.0002
-0.0002
-0.0002
-0.0002
-0.0002
-0.0002
-0.0002
-0.0003
-0.0003
-0.0003
-0.0003
-0.0003
-0.0003
-0.0003
-0.0003
-0.0003
-0.0003
-0.0003
-0.0003
-0.0003
-0.0003
-0.0003
-0.0003
-0.0003
-0.0003
-0.0003
-0.0003
-0.0003
-0.0003
2e-16
3e-16
-3e-16
-1e-15
-2e-16
-5e-16
5e-16
-9e-17
-9e-16
-4e-06
-3e-06
-3e-06
-3e-06
-3e-06
-3e-06
-3e-06
-3e-06
-4e-06
-7e-06
-7e-06
-7e-06
-7e-06
-7e-06
-7e-06
-7e-06
-7e-06
-7e-06
-1e-05
-1e-05
-1e-05
-1e-05
-1e-05
-1e-05
-1e-05
-1e-05
-1e-05
-1e-05
-1e-05
-1e-05
-1e-05
-1e-05
-1e-05
-1e-05
-1e-05
-1e-05
-2e-05
-2e-05
-2e-05
-2e-05
-2e-05
-2e-05
-2e-05
-2e-05
-2e-05
-2e-05
-2e-05
-2e-05
-2e-05
-2e-05
-2e-05
-2e-05
-2e-05
-2e-05
-3e-05
-3e-05
-3e-05
-3e-05
-3e-05
-3e-05
-3e-05
-3e-05
-3e-05
-3e-05
-3e-05
-3e-05
-3e-05
-3e-05
-3e-05
-3e-05
-3e-05
-3e-05
-3e-05
-3e-05
-3e-05
-3e-05
-3e-05
-3e-05
-3e-05
-3e-05
-3e-05
-4e-05
-4e-05
-4e-05
-4e-05
-4e-05
-4e-05
-4e-05
-4e-05
-4e-05
-4e-05
-4e-05
-4e-05
-4e-05
-4e-05
-4e-05
-4e-05
-4e-05
-4e-05
-4e-05
-4e-05
-4e-05
-4e-05
-4e-05
-4e-05
-4e-05
-4e-05
-4e-05
-5e-05
-5e-05
-5e-05
-5e-05
-5e-05
-5e-05
-5e-05
-5e-05
-5e-05
-5e-05
-5e-05
-5e-05
-5e-05
-5e-05
-5e-05
-5e-05
-5e-05
-5e-05
-6e-05
-6e-05
-6e-05
-6e-05
-6e-05
-6e-05
-6e-05
-6e-05
-6e-05
-6e-05
-6e-05
-6e-05
-6e-05
-6e-05
-6e-05
-6e-05
-6e-05
-6e-05
-6e-05
-6e-05
-6e-05
-6e-05
-6e-05
-6e-05
-6e-05
-6e-05
-6e-05
-7e-05
-7e-05
-7e-05
-7e-05
-7e-05
-7e-05
-7e-05
-7e-05
-7e-05
-7e-05
-7e-05
-7e-05
-7e-05
-7e-05
-7e-05
-7e-05
-7e-05
-7e-05
-8e-05
-8e-05
-8e-05
-8e-05
-8e-05
-8e-05
-8e-05
-8e-05
-8e-05
-8e-05
-8e-05
-8e-05
-8e-05
-8e-05
-8e-05
-8e-05
-8e-05
-8e-05
-8e-05
-8e-05
-8e-05
-8e-05
-8e-05
-8e-05
-8e-05
-8e-05
-8e-05
-9e-05
-9e-05
-9e-05
-9e-05
-9e-05
-9e-05
-9e-05
-9e-05
-9e-05
-9e-05
-9e-05
-9e-05
-9e-05
-9e-05
-9e-05
-9e-05
-9e-05
-9e-05
-9e-05
-9e-05
-9e-05
-9e-05
-9e-05
-9e-05
-9e-05
-9e-05
-9e-05
-0.0001
-0.0001
-0.0001
-0.0001
-0.0001
-0.0001
-0.0001
-0.0001
-0.0001
-0.0001
-0.0001
-0.0001
-0.0001
-0.0001
-0.0001
-0.0001
-0.0001
-0.0001
-0.0001
-0.0001
-0.0001
-0.0001
-0.0001
-0.0001
-0.0001
-0.0001
-0.0001
-0.0001
-0.0001
-0.0001
-0.0001
-0.0001
-0.0001
-0.0001
-0.0001
-0.0001
-0.0001
-0.0001
-0.0001
-0.0001
-0.0001
-0.0001
-0.0001
-0.0001
-0.0001
-0.0001
-0.0001
-0.0001
-0.0001
-0.0001
-0.0001
-0.0001
-0.0001
-0.0001
-0.0001
-0.0001
-0.0001
-0.0001
-0.0001
-0.0001
-0.0001
-0.0001
-0.0001
-0.0001
-0.0001
-0.0001
-0.0001
-0.0001
-0.0001
-0.0001
-0.0001
-0.0001
-0.0001
-0.0001
-0.0001
-0.0001
-0.0001
-0.0001
-0.0001
-0.0001
-0.0001
-0.0001
-0.0001
-0.0001
-0.0001
-0.0001
-0.0001
-0.0001
-0.0001
-0.0001
-0.0001
-0.0001
-0.0001
-0.0001
-0.0001
-0.0001
-0.0001
-0.0001
-0.0001
-0.0001
-0.0001
-0.0001
-0.0001
-0.0001
-0.0001
-0.0001
-0.0001
-0.0001
-0.0001
-0.0001
-0.0001
-0.0001
-0.0001
-0.0001
-0.0001
-0.0001
-0.0001
-0.0001
-0.0001
-0.0001
-0.0001
-0.0001
-0.0001
-0.0001
-0.0001
-0.0001
-0.0002
-0.0002
-0.0002
-0.0002
-0.0002
-0.0002
-0.0002
-0.0002
-0.0002
-0.0002
-0.0002
-0.0002
-0.0002
-0.0002
-0.0002
-0.0002
-0.0002
-0.0002
-0.0002
-0.0002
-0.0002
-0.0002
-0.0002
-0.0002
-0.0002
-0.0002
-0.0002
-0.0002
-0.0002
-0.0002
-0.0002
-0.0002
-0.0002
-0.0002
-0.0002
-0.0002
-0.0002
-0.0002
-0.0002
-0.0002
-0.0002
-0.0002
-0.0002
-0.0002
-0.0002
-0.0002
-0.0002
-0.0002
-0.0002
-0.0002
-0.0002
-0.0002
-0.0002
-0.0002
-0.0002
-0.0002
-0.0002
-0.0002
-0.0002
-0.0002
-0.0002
-0.0002
-0.0002
-0.0002
-0.0002
-0.0002
-0.0002
-0.0002
-0.0002
-0.0002
-0.0002
-0.0002
-0.0002
-0.0002
-0.0002
-0.0002
-0.0002
-0.0002
-0.0002
-0.0002
-0.0002
-0.0002
-0.0002
-0.0002
-0.0002
-0.0002
-0.0002
-0.0002
-0.0002
-0.0002
-0.0002
-0.0002
-0.0002
-0.0002
-0.0002
-0.0002
-0.0002
-0.0002
-0.0002
-0.0002
-0.0002
-0.0002
-0.0002
-0.0002
-0.0002
-0.0002
-0.0002
-0.0002
-0.0002
-0.0002
-0.0002
-0.0002
-0.0002
-0.0002
-0.0002
-0.0002
-0.0002
-0.0002
-0.0002
-0.0002
-0.0002
-0.0002
-0.0002
-0.0002
-0.0002
-0.0002
-0.0002
-0.0002
-0.0002
-0.0002
-0.0002
-0.0002
-0.0002
-0.0002
-0.0002
-0.0002
-0.0002
-0.0002
-0.0002
-0.0002
-0.0002
-0.0002
-0.0002
-0.0002
-0.0002
-0.0002
-0.0002
-0.0002
-0.0002
-0.0002
-0.0002
-0.0002
-0.0002
-0.0002
-0.0002
-0.0002
-0.0002
-0.0002
-0.0002
-0.0002
-0.0002
-0.0002
-0.0002
-0.0002
-0.0002
-0.0002
-0.0002
-0.0002
-0.0002
-0.0002
-0.0002
-0.0002
-0.0002
-0.0002
-0.0002
-0.0002
-0.0002
-0.0002
-0.0002
-0.0002
-0.0002
-0.0002
-0.0002
-0.0002
-0.0002
-0.0002
-0.0002
-0.0002
-0.0002
-0.0002
-0.0002
-0.0002
-0.0002
-0.0002
-0.0002
-0.0002
-0.0002
-0.0002
-0.0002
-0.0002
-0.0002
-0.0002
-0.0002
-0.0002
-0.0002
-0.0002
-0.0002
-0.0002
-0.0002
-0.0002
-0.0002
-0.0002
-0.0002
-0.0002
-0.0002
-0.0002
-0.0002
-0.0002
-0.0002
-0.0002
-0.0002
-0.0002
-0.0002
-0.0002
-0.0002
-0.0002
-0.0002
-0.0002
-0.0002
-0.0002
-0.0002
-0.0002
-0.0002
-0.0002
-0.0002
-0.0002
-0.0002
-0.0002
-0.0002
-0.0002
-0.0002
-0.0002
-0.0002
-0.0003
-0.0003
-0.0003
-0.0003
-0.0003
-0.0003
-0.0003
-0.0003
-0.0003
-0.0003
-0.0003
-0.0003
-0.0003
-0.0003
-0.0003
-0.0003
-0.0003
-0.0003
-0.0003
-0.0003
-0.0003
-0.0003
-0.0003
-0.0003
-0.0003
-0.0003
-0.0003
-0.0003
-0.0003
-0.0003
-0.0003
-0.0003
-0.0003
-0.0003
-0.0003
-0.0003
-0.0003
-0.0003
-0.0003
-0.0003
-0.0003
-0.0003
-0.0003
-0.0003
-0.0003
-0.0003
-0.0003
-0.0003
-0.0003
-0.0003
-0.0003
-0.0003
-0.0003
-0.0003
-0.0003
-0.0003
-0.0003
-0.0003
-0.0003
-0.0003
-0.0003
-0.0003
-0.0003
-0.0003
-0.0003
-0.0003
-0.0003
-0.0003
-0.0003
-0.0003
-0.0003
-0.0003
-0.0003
-0.0003
-0.0003
-0.0003
-0.0003
-0.0003
-0.0003
-0.0003
-0.0003
-0.0003
-0.0003
-0.0003
-0.0003
-0.0003
-0.0003
-0.0003
-0.0003
-0.0003
-0.0003
-0.0003
-0.0003
-0.0003
-0.0003
-0.0003
-0.0003
-0.0003
-0.0003
-0.0003
-0.0003
-0.0003
-0.0003
-0.0003
-0.0003
-0.0003
-0.0003
-0.0003
-0.0003
-0.0003
-0.0003
-0.0003
-0.0003
-0.0003
-0.0003
-0.0003
-0.0003
SCALARS strain_1 float
LOOKUP_TABLE default
-0.000178
-0.282792
-0.278518
-0.274222
-0.269906
-0.265569
-0.261214
-0.256842
-0.252455
-0.248051
-0.243632
-0.239202
-0.234760
-0.230306
-0.225843
-0.221375
-0.216899
-0.212417
-0.207933
-0.203446
-0.198961
-0.194475
-0.189993
-0.185516
-0.181045
-0.176582
-0.172130
-0.167690
-0.163263
-0.158852
-0.154460
-0.150087
-0.145736
-0.141407
-0.137106
-0.132831
-0.128588
-0.124377
-0.120199
-0.116059
-0.111957
-0.107895
-0.103878
-0.099905
-0.095980
-0.092103
-0.088280
-0.084509
-0.080793
-0.077136
-0.073540
-0.070005
-0.066534
-0.063129
-0.059792
-0.056523
-0.053328
-0.050205
-0.047157
-0.044185
-0.041291
-0.038477
-0.035742
-0.033091
-0.030521
-0.028037
-0.025637
-0.023324
-0.021096
-0.018957
-0.016906
-0.014943
-0.013069
-0.011284
-0.009587
-0.007979
-0.006460
-0.005030
-0.003687
-0.002431
-0.001261
-0.283046
-0.000006
-0.001093
-0.002266
-0.003526
-0.004872
-0.006307
-0.007829
-0.009441
-0.011141
-0.012932
-0.014811
-0.016779
-0.018836
-0.020979
-0.023212
-0.025530
-0.027936
-0.030426
-0.033000
-0.035659
-0.038398
-0.041219
-0.044119
-0.047097
-0.050151
-0.053281
-0.056483
-0.059758
-0.063102
-0.066513
-0.069991
-0.073532
-0.077135
-0.080799
-0.084520
-0.088298
-0.092128
-0.096010
-0.099943
-0.103922
-0.107946
-0.112015
-0.116124
-0.120271
-0.124454
-0.128671
-0.132921
-0.137201
-0.141510
-0.145844
-0.150201
-0.154579
-0.158979
-0.163395
-0.167828
-0.172273
-0.176731
-0.181199
-0.185676
-0.190159
-0.194645
-0.199135
-0.203628
-0.208118
-0.212608
-0.217093
-0.221574
-0.226048
-0.230514
-0.234972
-0.239419
-0.243853
-0.248275
-0.252683
-0.257075
-0.261451
-0.265808
-0.270148
-0.274467
-0.278767
-0.283021
-0.282997
-0.282973
-0.282947
-0.282923
-0.282897
-0.282872
-0.282845
-0.282819
-0.000144
-0.000114
-0.000087
-0.000066
-0.000046
-0.000031
-0.000019
-0.000011
-0.000007
-0.001094
-0.001098
-0.001106
-0.001116
-0.001131
-0.001150
-0.001171
-0.001198
-0.001228
-0.002265
-0.002270
-0.002277
-0.002287
-0.002301
-0.002320
-0.002342
-0.002368
-0.002397
-0.003525
-0.003528
-0.003535
-0.003544
-0.003559
-0.003577
-0.003599
-0.003625
-0.003653
-0.004872
-0.004873
-0.004880
-0.004890
-0.004904
-0.004921
-0.004942
-0.004967
-0.004997
-0.006305
-0.006307
-0.006312
-0.006323
-0.006337
-0.006353
-0.006374
-0.006400
-0.006428
-0.007828
-0.007829
-0.007834
-0.007844
-0.007856
-0.007874
-0.007895
-0.007919
-0.007948
-0.009439
-0.009440
-0.009446
-0.009454
-0.009466
-0.009484
-0.009503
-0.009527
-0.009555
-0.011140
-0.011140
-0.011145
-0.011153
-0.011167
-0.011182
-0.011201
-0.011225
-0.011252
-0.012929
-0.012929
-0.012933
-0.012941
-0.012953
-0.012968
-0.012987
-0.013011
-0.013039
-0.014806
-0.014807
-0.014811
-0.014818
-0.014830
-0.014844
-0.014864
-0.014887
-0.014913
-0.016775
-0.016773
-0.016777
-0.016784
-0.016795
-0.016809
-0.016827
-0.016849
-0.016876
-0.018831
-0.018830
-0.018832
-0.018839
-0.018849
-0.018863
-0.018882
-0.018903
-0.018929
-0.020975
-0.020972
-0.020975
-0.020981
-0.020991
-0.021004
-0.021022
-0.021043
-0.021068
-0.023205
-0.023204
-0.023206
-0.023211
-0.023220
-0.023233
-0.023251
-0.023271
-0.023295
-0.025524
-0.025521
-0.025523
-0.025529
-0.025537
-0.025549
-0.025566
-0.025586
-0.025610
-0.027929
-0.027926
-0.027927
-0.027931
-0.027940
-0.027952
-0.027967
-0.027987
-0.028009
-0.030419
-0.030415
-0.030416
-0.030420
-0.030428
-0.030439
-0.030455
-0.030472
-0.030495
-0.032994
-0.032989
-0.032990
-0.032993
-0.033000
-0.033010
-0.033025
-0.033043
-0.033064
-0.035650
-0.035646
-0.035645
-0.035649
-0.035656
-0.035665
-0.035679
-0.035697
-0.035718
-0.038390
-0.038385
-0.038384
-0.038386
-0.038392
-0.038401
-0.038415
-0.038432
-0.038452
-0.041210
-0.041205
-0.041203
-0.041205
-0.041211
-0.041219
-0.041233
-0.041248
-0.041268
-0.044110
-0.044104
-0.044102
-0.044103
-0.044108
-0.044117
-0.044128
-0.044144
-0.044162
-0.047088
-0.047081
-0.047079
-0.047079
-0.047083
-0.047092
-0.047102
-0.047117
-0.047135
-0.050142
-0.050135
-0.050133
-0.050132
-0.050136
-0.050143
-0.050153
-0.050167
-0.050185
-0.053272
-0.053263
-0.053260
-0.053260
-0.053262
-0.053269
-0.053279
-0.053292
-0.053308
-0.056473
-0.056466
-0.056461
-0.056460
-0.056462
-0.056467
-0.056477
-0.056489
-0.056505
-0.059746
-0.059738
-0.059734
-0.059732
-0.059734
-0.059738
-0.059747
-0.059760
-0.059774
-0.063089
-0.063081
-0.063077
-0.063074
-0.063075
-0.063079
-0.063087
-0.063097
-0.063112
-0.066500
-0.066491
-0.066486
-0.066483
-0.066484
-0.066487
-0.066495
-0.066505
-0.066518
-0.069978
-0.069969
-0.069963
-0.069959
-0.069958
-0.069961
-0.069968
-0.069977
-0.069989
-0.073519
-0.073510
-0.073502
-0.073498
-0.073497
-0.073500
-0.073506
-0.073513
-0.073526
-0.077122
-0.077112
-0.077105
-0.077100
-0.077099
-0.077100
-0.077105
-0.077113
-0.077122
-0.080785
-0.080774
-0.080766
-0.080762
-0.080760
-0.080761
-0.080765
-0.080771
-0.080781
-0.084506
-0.084495
-0.084486
-0.084481
-0.084479
-0.084479
-0.084482
-0.084488
-0.084497
-0.088283
-0.088271
-0.088263
-0.088257
-0.088253
-0.088253
-0.088255
-0.088261
-0.088269
-0.092114
-0.092102
-0.092093
-0.092086
-0.092083
-0.092081
-0.092083
-0.092087
-0.092094
-0.095997
-0.095984
-0.095974
-0.095967
-0.095962
-0.095960
-0.095961
-0.095965
-0.095971
-0.099928
-0.099916
-0.099904
-0.099897
-0.099892
-0.099890
-0.099890
-0.099892
-0.099897
-0.103907
-0.103894
-0.103883
-0.103875
-0.103868
-0.103866
-0.103864
-0.103867
-0.103871
-0.107932
-0.107918
-0.107907
-0.107898
-0.107891
-0.107887
-0.107886
-0.107887
-0.107891
-0.111998
-0.111984
-0.111973
-0.111964
-0.111957
-0.111953
-0.111950
-0.111951
-0.111953
-0.116106
-0.116092
-0.116079
-0.116070
-0.116063
-0.116057
-0.116054
-0.116054
-0.116054
-0.120253
-0.120239
-0.120226
-0.120216
-0.120207
-0.120202
-0.120198
-0.120196
-0.120196
-0.124437
-0.124422
-0.124409
-0.124397
-0.124388
-0.124381
-0.124378
-0.124375
-0.124375
-0.128655
-0.128638
-0.128625
-0.128613
-0.128604
-0.128597
-0.128591
-0.128588
-0.128587
-0.132904
-0.132888
-0.132875
-0.132862
-0.132852
-0.132843
-0.132838
-0.132834
-0.132832
-0.137184
-0.137167
-0.137153
-0.137140
-0.137130
-0.137121
-0.137114
-0.137109
-0.137107
-0.141491
-0.141474
-0.141460
-0.141447
-0.141435
-0.141426
-0.141418
-0.141413
-0.141410
-0.145824
-0.145807
-0.145792
-0.145779
-0.145768
-0.145757
-0.145749
-0.145742
-0.145738
-0.150181
-0.150164
-0.150149
-0.150135
-0.150123
-0.150112
-0.150102
-0.150096
-0.150091
-0.154560
-0.154543
-0.154527
-0.154512
-0.154500
-0.154489
-0.154479
-0.154471
-0.154465
-0.158959
-0.158942
-0.158925
-0.158910
-0.158896
-0.158884
-0.158874
-0.158865
-0.158858
-0.163376
-0.163357
-0.163340
-0.163326
-0.163311
-0.163298
-0.163288
-0.163278
-0.163270
-0.167808
-0.167789
-0.167772
-0.167756
-0.167741
-0.167729
-0.167716
-0.167705
-0.167697
-0.172253
-0.172233
-0.172218
-0.172200
-0.172186
-0.172172
-0.172160
-0.172148
-0.172139
-0.176711
-0.176692
-0.176674
-0.176657
-0.176642
-0.176627
-0.176614
-0.176602
-0.176592
-0.181179
-0.181160
-0.181141
-0.181124
-0.181108
-0.181093
-0.181080
-0.181067
-0.181055
-0.185655
-0.185636
-0.185616
-0.185598
-0.185582
-0.185567
-0.185553
-0.185539
-0.185527
-0.190137
-0.190117
-0.190098
-0.190080
-0.190063
-0.190047
-0.190033
-0.190018
-0.190006
-0.194625
-0.194604
-0.194585
-0.194567
-0.194549
-0.194532
-0.194516
-0.194501
-0.194488
-0.199115
-0.199094
-0.199074
-0.199055
-0.199038
-0.199020
-0.199004