# vtk DataFile Version 2.0
Generated volume Mesh
ASCII
DATASET UNSTRUCTURED_GRID
POINTS 891 float
0.005000 0.100000 0.000000
0.005000 0.000000 0.000000
0.005000 0.001250 0.000000
0.005000 0.002500 0.000000
0.005000 0.003750 0.000000
0.005000 0.005000 0.000000
0.005000 0.006250 0.000000
0.005000 0.007500 0.000000
0.005000 0.008750 0.000000
0.005000 0.010000 0.000000
0.005000 0.011250 0.000000
0.005000 0.012500 0.000000
0.005000 0.013750 0.000000
0.005000 0.015000 0.000000
0.005000 0.016250 0.000000
0.005000 0.017500 0.000000
0.005000 0.018750 0.000000
0.005000 0.020000 0.000000
0.005000 0.021250 0.000000
0.005000 0.022500 0.000000
0.005000 0.023750 0.000000
0.005000 0.025000 0.000000
0.005000 0.026250 0.000000
0.005000 0.027500 0.000000
0.005000 0.028750 0.000000
0.005000 0.030000 0.000000
0.005000 0.031250 0.000000
0.005000 0.032500 0.000000
0.005000 0.033750 0.000000
0.005000 0.035000 0.000000
0.005000 0.036250 0.000000
0.005000 0.037500 0.000000
0.005000 0.038750 0.000000
0.005000 0.040000 0.000000
0.005000 0.041250 0.000000
0.005000 0.042500 0.000000
0.005000 0.043750 0.000000
0.005000 0.045000 0.000000
0.005000 0.046250 0.000000
0.005000 0.047500 0.000000
0.005000 0.048750 0.000000
0.005000 0.050000 0.000000
0.005000 0.051250 0.000000
0.005000 0.052500 0.000000
0.005000 0.053750 0.000000
0.005000 0.055000 0.000000
0.005000 0.056250 0.000000
0.005000 0.057500 0.000000
0.005000 0.058750 0.000000
0.005000 0.060000 0.000000
0.005000 0.061250 0.000000
0.005000 0.062500 0.000000
0.005000 0.063750 0.000000
0.005000 0.065000 0.000000
0.005000 0.066250 0.000000
0.005000 0.067500 0.000000
0.005000 0.068750 0.000000
0.005000 0.070000 0.000000
0.005000 0.071250 0.000000
0.005000 0.072500 0.000000
0.005000 0.073750 0.000000
0.005000 0.075000 0.000000
0.005000 0.076250 0.000000
0.005000 0.077500 0.000000
0.005000 0.078750 0.000000
0.005000 0.080000 0.000000
0.005000 0.081250 0.000000
0.005000 0.082500 0.000000
0.005000 0.083750 0.000000
0.005000 0.085000 0.000000
0.005000 0.086250 0.000000
0.005000 0.087500 0.000000
0.005000 0.088750 0.000000
0.005000 0.090000 0.000000
0.005000 0.091250 0.000000
0.005000 0.092500 0.000000
0.005000 0.093750 0.000000
0.005000 0.095000 0.000000
0.005000 0.096250 0.000000
0.005000 0.097500 0.000000
0.005000 0.098750 0.000000
0.000000 0.000000 0.000000
0.000000 0.100000 0.000000
0.000000 0.098750 0.000000
0.000000 0.097500 0.000000
0.000000 0.096250 0.000000
0.000000 0.095000 0.000000
0.000000 0.093750 0.000000
0.000000 0.092500 0.000000
0.000000 0.091250 0.000000
0.000000 0.090000 0.000000
0.000000 0.088750 0.000000
0.000000 0.087500 0.000000
0.000000 0.086250 0.000000
0.000000 0.085000 0.000000
0.000000 0.083750 0.000000
0.000000 0.082500 0.000000
0.000000 0.081250 0.000000
0.000000 0.080000 0.000000
0.000000 0.078750 0.000000
0.000000 0.077500 0.000000
0.000000 0.076250 0.000000
0.000000 0.075000 0.000000
0.000000 0.073750 0.000000
0.000000 0.072500 0.000000
0.000000 0.071250 0.000000
0.000000 0.070000 0.000000
0.000000 0.068750 0.000000
0.000000 0.067500 0.000000
0.000000 0.066250 0.000000
0.000000 0.065000 0.000000
0.000000 0.063750 0.000000
0.000000 0.062500 0.000000
0.000000 0.061250 0.000000
0.000000 0.060000 0.000000
0.000000 0.058750 0.000000
0.000000 0.057500 0.000000
0.000000 0.056250 0.000000
0.000000 0.055000 0.000000
0.000000 0.053750 0.000000
0.000000 0.052500 0.000000
0.000000 0.051250 0.000000
0.000000 0.050000 0.000000
0.000000 0.048750 0.000000
0.000000 0.047500 0.000000
0.000000 0.046250 0.000000
0.000000 0.045000 0.000000
0.000000 0.043750 0.000000
0.000000 0.042500 0.000000
0.000000 0.041250 0.000000
0.000000 0.040000 0.000000
0.000000 0.038750 0.000000
0.000000 0.037500 0.000000
0.000000 0.036250 0.000000
0.000000 0.035000 0.000000
0.000000 0.033750 0.000000
0.000000 0.032500 0.000000
0.000000 0.031250 0.000000
0.000000 0.030000 0.000000
0.000000 0.028750 0.000000
0.000000 0.027500 0.000000
0.000000 0.026250 0.000000
0.000000 0.025000 0.000000
0.000000 0.023750 0.000000
0.000000 0.022500 0.000000
0.000000 0.021250 0.000000
0.000000 0.020000 0.000000
0.000000 0.018750 0.000000
0.000000 0.017500 0.000000
0.000000 0.016250 0.000000
0.000000 0.015000 0.000000
0.000000 0.013750 0.000000
0.000000 0.012500 0.000000
0.000000 0.011250 0.000000
0.000000 0.010000 0.000000
0.000000 0.008750 0.000000
0.000000 0.007500 0.000000
0.000000 0.006250 0.000000
0.000000 0.005000 0.000000
0.000000 0.003750 0.000000
0.000000 0.002500 0.000000
0.000000 0.001250 0.000000
0.000500 0.000000 0.000000
0.001000 0.000000 0.000000
0.001500 0.000000 0.000000
0.002000 0.000000 0.000000
0.002500 0.000000 0.000000
0.003000 0.000000 0.000000
0.003500 0.000000 0.000000
0.004000 0.000000 0.000000
0.004500 0.000000 0.000000
0.004500 0.100000 0.000000
0.004000 0.100000 0.000000
0.003500 0.100000 0.000000
0.003000 0.100000 0.000000
0.002500 0.100000 0.000000
0.002000 0.100000 0.000000
0.001500 0.100000 0.000000
0.001000 0.100000 0.000000
0.000500 0.100000 0.000000
0.000500 0.098750 0.000000
0.001000 0.098750 0.000000
0.001500 0.098750 0.000000
0.002000 0.098750 0.000000
0.002500 0.098750 0.000000
0.003000 0.098750 0.000000
0.003500 0.098750 0.000000
0.004000 0.098750 0.000000
0.004500 0.098750 0.000000
0.000500 0.097500 0.000000
0.001000 0.097500 0.000000
0.001500 0.097500 0.000000
0.002000 0.097500 0.000000
0.002500 0.097500 0.000000
0.003000 0.097500 0.000000
0.003500 0.097500 0.000000
0.004000 0.097500 0.000000
0.004500 0.097500 0.000000
0.000500 0.096250 0.000000
0.001000 0.096250 0.000000
0.001500 0.096250 0.000000
0.002000 0.096250 0.000000
0.002500 0.096250 0.000000
0.003000 0.096250 0.000000
0.003500 0.096250 0.000000
0.004000 0.096250 0.000000
0.004500 0.096250 0.000000
0.000500 0.095000 0.000000
0.001000 0.095000 0.000000
0.001500 0.095000 0.000000
0.002000 0.095000 0.000000
0.002500 0.095000 0.000000
0.003000 0.095000 0.000000
0.003500 0.095000 0.000000
0.004000 0.095000 0.000000
0.004500 0.095000 0.000000
0.000500 0.093750 0.000000
0.001000 0.093750 0.000000
0.001500 0.093750 0.000000
0.002000 0.093750 0.000000
0.002500 0.093750 0.000000
0.003000 0.093750 0.000000
0.003500 0.093750 0.000000
0.004000 0.093750 0.000000
0.004500 0.093750 0.000000
0.000500 0.092500 0.000000
0.001000 0.092500 0.000000
0.001500 0.092500 0.000000
0.002000 0.092500 0.000000
0.002500 0.092500 0.000000
0.003000 0.092500 0.000000
0.003500 0.092500 0.000000
0.004000 0.092500 0.000000
0.004500 0.092500 0.000000
0.000500 0.091250 0.000000
0.001000 0.091250 0.000000
0.001500 0.091250 0.000000
0.002000 0.091250 0.000000
0.002500 0.091250 0.000000
0.003000 0.091250 0.000000
0.003500 0.091250 0.000000
0.004000 0.091250 0.000000
0.004500 0.091250 0.000000
0.000500 0.090000 0.000000
0.001000 0.090000 0.000000
0.001500 0.090000 0.000000
0.002000 0.090000 0.000000
0.002500 0.090000 0.000000
0.003000 0.090000 0.000000
0.003500 0.090000 0.000000
0.004000 0.090000 0.000000
0.004500 0.090000 0.000000
0.000500 0.088750 0.000000
0.001000 0.088750 0.000000
0.001500 0.088750 0.000000
0.002000 0.088750 0.000000
0.002500 0.088750 0.000000
0.003000 0.088750 0.000000
0.003500 0.088750 0.000000
0.004000 0.088750 0.000000
0.004500 0.088750 0.000000
0.000500 0.087500 0.000000
0.001000 0.087500 0.000000
0.001500 0.087500 0.000000
0.002000 0.087500 0.000000
0.002500 0.087500 0.000000
0.003000 0.087500 0.000000
0.003500 0.087500 0.000000
0.004000 0.087500 0.000000
0.004500 0.087500 0.000000
0.000500 0.086250 0.000000
0.001000 0.086250 0.000000
0.001500 0.086250 0.000000
0.002000 0.086250 0.000000
0.002500 0.086250 0.000000
0.003000 0.086250 0.000000
0.003500 0.086250 0.000000
0.004000 0.086250 0.000000
0.004500 0.086250 0.000000
0.000500 0.085000 0.000000
0.001000 0.085000 0.000000
0.001500 0.085000 0.000000
0.002000 0.085000 0.000000
0.002500 0.085000 0.000000
0.003000 0.085000 0.000000
0.003500 0.085000 0.000000
0.004000 0.085000 0.000000
0.004500 0.085000 0.000000
0.000500 0.083750 0.000000
0.001000 0.083750 0.000000
0.001500 0.083750 0.000000
0.002000 0.083750 0.000000
0.002500 0.083750 0.000000
0.003000 0.083750 0.000000
0.003500 0.083750 0.000000
0.004000 0.083750 0.000000
0.004500 0.083750 0.000000
0.000500 0.082500 0.000000
0.001000 0.082500 0.000000
0.001500 0.082500 0.000000
0.002000 0.082500 0.000000
0.002500 0.082500 0.000000
0.003000 0.082500 0.000000
0.003500 0.082500 0.000000
0.004000 0.082500 0.000000
0.004500 0.082500 0.000000
0.000500 0.081250 0.000000
0.001000 0.081250 0.000000
0.001500 0.081250 0.000000
0.002000 0.081250 0.000000
0.002500 0.081250 0.000000
0.003000 0.081250 0.000000
0.003500 0.081250 0.000000
0.004000 0.081250 0.000000
0.004500 0.081250 0.000000
0.000500 0.080000 0.000000
0.001000 0.080000 0.000000
0.001500 0.080000 0.000000
0.002000 0.080000 0.000000
0.002500 0.080000 0.000000
0.003000 0.080000 0.000000
0.003500 0.080000 0.000000
0.004000 0.080000 0.000000
0.004500 0.080000 0.000000
0.000500 0.078750 0.000000
0.001000 0.078750 0.000000
0.001500 0.078750 0.000000
0.002000 0.078750 0.000000
0.002500 0.078750 0.000000
0.003000 0.078750 0.000000
0.003500 0.078750 0.000000
0.004000 0.078750 0.000000
0.004500 0.078750 0.000000
0.000500 0.077500 0.000000
0.001000 0.077500 0.000000
0.001500 0.077500 0.000000
0.002000 0.077500 0.000000
0.002500 0.077500 0.000000
0.003000 0.077500 0.000000
0.003500 0.077500 0.000000
0.004000 0.077500 0.000000
0.004500 0.077500 0.000000
0.000500 0.076250 0.000000
0.001000 0.076250 0.000000
0.001500 0.076250 0.000000
0.002000 0.076250 0.000000
0.002500 0.076250 0.000000
0.003000 0.076250 0.000000
0.003500 0.076250 0.000000
0.004000 0.076250 0.000000
0.004500 0.076250 0.000000
0.000500 0.075000 0.000000
0.001000 0.075000 0.000000
0.001500 0.075000 0.000000
0.002000 0.075000 0.000000
0.002500 0.075000 0.000000
0.003000 0.075000 0.000000
0.003500 0.075000 0.000000
0.004000 0.075000 0.000000
0.004500 0.075000 0.000000
0.000500 0.073750 0.000000
0.001000 0.073750 0.000000
0.001500 0.073750 0.000000
0.002000 0.073750 0.000000
0.002500 0.073750 0.000000
0.003000 0.073750 0.000000
[...]
POINT_DATA 891
SCALARS u1 float
LOOKUP_TABLE default
6e-17
-1e-06
-1e-06
-1e-06
-1e-06
-1e-06
-1e-06
-1e-06
-1e-06
-1e-06
-1e-06
-1e-06
-1e-06
-1e-06
-1e-06
-1e-06
-1e-06
-1e-06
-1e-06
-1e-06
-1e-06
-1e-06
-1e-06
-1e-06
-1e-06
-1e-06
-1e-06
-1e-06
-1e-06
-1e-06
-1e-06
-1e-06
-1e-06
-1e-06
-1e-06
-1e-06
-1e-06
-1e-06
-1e-06
-1e-06
-1e-06
-1e-06
-1e-06
-1e-06
-1e-06
-1e-06
-1e-06
-1e-06
-1e-06
-1e-06
-1e-06
-1e-06
-1e-06
-1e-06
-1e-06
-1e-06
-1e-06
-1e-06
-1e-06
-1e-06
-1e-06
-1e-06
-1e-06
-1e-06
-1e-06
-1e-06
-1e-06
-1e-06
-1e-06
-1e-06
-1e-06
-1e-06
-1e-06
-1e-06
-1e-06
-1e-06
-1e-06
-1e-06
-1e-06
-1e-06
-8e-07
1e-06
-3e-17
8e-07
1e-06
1e-06
1e-06
1e-06
1e-06
1e-06
1e-06
1e-06
1e-06
1e-06
1e-06
1e-06
1e-06
1e-06
1e-06
1e-06
1e-06
1e-06
1e-06
1e-06
1e-06
1e-06
1e-06
1e-06
1e-06
1e-06
1e-06
1e-06
1e-06
1e-06
1e-06
1e-06
1e-06
1e-06
1e-06
1e-06
1e-06
1e-06
1e-06
1e-06
1e-06
1e-06
1e-06
1e-06
1e-06
1e-06
1e-06
1e-06
1e-06
1e-06
1e-06
1e-06
1e-06
1e-06
1e-06
1e-06
1e-06
1e-06
1e-06
1e-06
1e-06
1e-06
1e-06
1e-06
1e-06
1e-06
1e-06
1e-06
1e-06
1e-06
1e-06
1e-06
1e-06
1e-06
1e-06
1e-06
1e-06
1e-06
8e-07
6e-07
4e-07
2e-07
-1e-13
-2e-07
-4e-07
-6e-07
-8e-07
-1e-16
2e-16
1e-15
-3e-16
-5e-16
-7e-17
2e-16
5e-16
-3e-16
6e-07
4e-07
2e-07
1e-07
-1e-14
-1e-07
-2e-07
-4e-07
-6e-07
8e-07
6e-07
4e-07
2e-07
-5e-14
-2e-07
-4e-07
-6e-07
-8e-07
8e-07
6e-07
4e-07
2e-07
-8e-14
-2e-07
-4e-07
-6e-07
-8e-07
8e-07
6e-07
4e-07
2e-07
-9e-14
-2e-07
-4e-07
-6e-07
-8e-07
8e-07
6e-07
4e-07
2e-07
-1e-13
-2e-07
-4e-07
-6e-07
-8e-07
8e-07
6e-07
4e-07
2e-07
-1e-13
-2e-07
-4e-07
-6e-07
-8e-07
8e-07
6e-07
4e-07
2e-07
-1e-13
-2e-07
-4e-07
-6e-07
-8e-07
8e-07
6e-07
4e-07
2e-07
-1e-13
-2e-07
-4e-07
-6e-07
-8e-07
8e-07
6e-07
4e-07
2e-07
-1e-13
-2e-07
-4e-07
-6e-07
-8e-07
8e-07
6e-07
4e-07
2e-07
-1e-13
-2e-07
-4e-07
-6e-07
-8e-07
8e-07
6e-07
4e-07
2e-07
-1e-13
-2e-07
-4e-07
-6e-07
-8e-07
8e-07
6e-07
4e-07
2e-07
-1e-13
-2e-07
-4e-07
-6e-07
-8e-07
8e-07
6e-07
4e-07
2e-07
-1e-13
-2e-07
-4e-07
-6e-07
-8e-07
8e-07
6e-07
4e-07
2e-07
-1e-13
-2e-07
-4e-07
-6e-07
-8e-07
8e-07
6e-07
4e-07
2e-07
-1e-13
-2e-07
-4e-07
-6e-07
-8e-07
8e-07
6e-07
4e-07
2e-07
-1e-13
-2e-07
-4e-07
-6e-07
-8e-07
8e-07
6e-07
4e-07
2e-07
-1e-13
-2e-07
-4e-07
-6e-07
-8e-07
8e-07
6e-07
4e-07
2e-07
-1e-13
-2e-07
-4e-07
-6e-07
-8e-07
8e-07
6e-07
4e-07
2e-07
-1e-13
-2e-07
-4e-07
-6e-07
-8e-07
8e-07
6e-07
4e-07
2e-07
-1e-13
-2e-07
-4e-07
-6e-07
-8e-07
8e-07
6e-07
4e-07
2e-07
-1e-13
-2e-07
-4e-07
-6e-07
-8e-07
8e-07
6e-07
4e-07
2e-07
-1e-13
-2e-07
-4e-07
-6e-07
-8e-07
8e-07
6e-07
4e-07
2e-07
-1e-13
-2e-07
-4e-07
-6e-07
-8e-07
8e-07
6e-07
4e-07
2e-07
-1e-13
-2e-07
-4e-07
-6e-07
-8e-07
8e-07
6e-07
4e-07
2e-07
-1e-13
-2e-07
-4e-07
-6e-07
-8e-07
8e-07
6e-07
4e-07
2e-07
-1e-13
-2e-07
-4e-07
-6e-07
-8e-07
8e-07
6e-07
4e-07
2e-07
-1e-13
-2e-07
-4e-07
-6e-07
-8e-07
8e-07
6e-07
4e-07
2e-07
-1e-13
-2e-07
-4e-07
-6e-07
-8e-07
8e-07
6e-07
4e-07
2e-07
-1e-13
-2e-07
-4e-07
-6e-07
-8e-07
8e-07
6e-07
4e-07
2e-07
-1e-13
-2e-07
-4e-07
-6e-07
-8e-07
8e-07
6e-07
4e-07
2e-07
-1e-13
-2e-07
-4e-07
-6e-07
-8e-07
8e-07
6e-07
4e-07
2e-07
-1e-13
-2e-07
-4e-07
-6e-07
-8e-07
8e-07
6e-07
4e-07
2e-07
-1e-13
-2e-07
-4e-07
-6e-07
-8e-07
8e-07
6e-07
4e-07
2e-07
-1e-13
-2e-07
-4e-07
-6e-07
-8e-07
8e-07
6e-07
4e-07
2e-07
-1e-13
-2e-07
-4e-07
-6e-07
-8e-07
8e-07
6e-07
4e-07
2e-07
-1e-13
-2e-07
-4e-07
-6e-07
-8e-07
8e-07
6e-07
4e-07
2e-07
-1e-13
-2e-07
-4e-07
-6e-07
-8e-07
8e-07
6e-07
4e-07
2e-07
-1e-13
-2e-07
-4e-07
-6e-07
-8e-07
8e-07
6e-07
4e-07
2e-07
-1e-13
-2e-07
-4e-07
-6e-07
-8e-07
8e-07
6e-07
4e-07
2e-07
-1e-13
-2e-07
-4e-07
-6e-07
-8e-07
8e-07
6e-07
4e-07
2e-07
-1e-13
-2e-07
-4e-07
-6e-07
-8e-07
8e-07
6e-07
4e-07
2e-07
-1e-13
-2e-07
-4e-07
-6e-07
-8e-07
8e-07
6e-07
4e-07
2e-07
-1e-13
-2e-07
-4e-07
-6e-07
-8e-07
8e-07
6e-07
4e-07
2e-07
-1e-13
-2e-07
-4e-07
-6e-07
-8e-07
8e-07
6e-07
4e-07
2e-07
-1e-13
-2e-07
-4e-07
-6e-07
-8e-07
8e-07
6e-07
4e-07
2e-07
-1e-13
-2e-07
-4e-07
-6e-07
-8e-07
8e-07
6e-07
4e-07
2e-07
-1e-13
-2e-07
-4e-07
-6e-07
-8e-07
8e-07
6e-07
4e-07
2e-07
-1e-13
-2e-07
-4e-07
-6e-07
-8e-07
8e-07
6e-07
4e-07
2e-07
-1e-13
-2e-07
-4e-07
-6e-07
-8e-07
8e-07
6e-07
4e-07
2e-07
-1e-13
-2e-07
-4e-07
-6e-07
-8e-07
8e-07
6e-07
4e-07
2e-07
-1e-13
-2e-07
-4e-07
-6e-07
-8e-07
8e-07
6e-07
4e-07
2e-07
-1e-13
-2e-07
-4e-07
-6e-07
-8e-07
8e-07
6e-07
4e-07
2e-07
-1e-13
-2e-07
-4e-07
-6e-07
-8e-07
8e-07
6e-07
4e-07
2e-07
-1e-13
-2e-07
-4e-07
-6e-07
-8e-07
8e-07
6e-07
4e-07
2e-07
-1e-13
-2e-07
-4e-07
-6e-07
-8e-07
8e-07
6e-07
4e-07
2e-07
-1e-13
-2e-07
-4e-07
-6e-07
-8e-07
8e-07
6e-07
4e-07
2e-07
-1e-13
-2e-07
-4e-07
-6e-07
-8e-07
8e-07
6e-07
4e-07
2e-07
-1e-13
-2e-07
-4e-07
-6e-07
-8e-07
8e-07
6e-07
4e-07
2e-07
-1e-13
-2e-07
-4e-07
-6e-07
-8e-07
8e-07
6e-07
4e-07
2e-07
-1e-13
-2e-07
-4e-07
-6e-07
-8e-07
8e-07
6e-07
4e-07
2e-07
-1e-13
-2e-07
-4e-07
-6e-07
-8e-07
8e-07
6e-07
4e-07
2e-07
-1e-13
-2e-07
-4e-07
-6e-07
-8e-07
8e-07
6e-07
4e-07
2e-07
-1e-13
-2e-07
-4e-07
-6e-07
-8e-07
8e-07
6e-07
4e-07
2e-07
-1e-13
-2e-07
-4e-07
-6e-07
-8e-07
8e-07
6e-07
4e-07
2e-07
-1e-13
-2e-07
-4e-07
-6e-07
-8e-07
8e-07
6e-07
4e-07
2e-07
-1e-13
-2e-07
-4e-07
-6e-07
-8e-07
8e-07
6e-07
4e-07
2e-07
-1e-13
-2e-07
-4e-07
-6e-07
-8e-07
8e-07
6e-07
4e-07
2e-07
-1e-13
-2e-07
-4e-07
-6e-07
-8e-07
8e-07
6e-07
4e-07
2e-07
-1e-13
-2e-07
-4e-07
-6e-07
-8e-07
8e-07
6e-07
4e-07
2e-07
-1e-13
-2e-07
-4e-07
-6e-07
-8e-07
8e-07
6e-07
4e-07
2e-07
-1e-13
-2e-07
-4e-07
-6e-07
-8e-07
8e-07
6e-07
4e-07
2e-07
-1e-13
-2e-07
-4e-07
-6e-07
-8e-07
8e-07
6e-07
4e-07
2e-07
-1e-13
-2e-07
-4e-07
-6e-07
-8e-07
8e-07
6e-07
4e-07
2e-07
-1e-13
-2e-07
-4e-07
-6e-07
-8e-07
8e-07
6e-07
4e-07
2e-07
-1e-13
-2e-07
-4e-07
-6e-07
-8e-07
8e-07
6e-07
4e-07
2e-07
-1e-13
-2e-07
-4e-07
-6e-07
-8e-07
8e-07
6e-07
4e-07
2e-07
-1e-13
-2e-07
-4e-07
-6e-07
-8e-07
8e-07
6e-07
4e-07
2e-07
-1e-13
-2e-07
-4e-07
-6e-07
-8e-07
8e-07
6e-07
4e-07
2e-07
-1e-13
-2e-07
-4e-07
-6e-07
-8e-07
SCALARS u2 float
LOOKUP_TABLE default
-2e-16
-0.0002
-0.0002
-0.0001
-0.0001
-0.0001
-0.0001
-0.0001
-0.0001
-0.0001
-0.0001
-0.0001
-0.0001
-0.0001
-0.0001
-0.0001
-0.0001
-0.0001
-0.0001
-0.0001
-0.0001
-0.0001
-0.0001
-0.0001
-0.0001
-0.0001
-0.0001
-0.0001
-0.0001
-0.0001
-0.0001
-0.0001
-9e-05
-9e-05
-9e-05
-9e-05
-9e-05
-8e-05
-8e-05
-8e-05
-8e-05
-8e-05
-7e-05
-7e-05
-7e-05
-7e-05
-7e-05
-7e-05
-6e-05
-6e-05
-6e-05
-6e-05
-6e-05
-5e-05
-5e-05
-5e-05
-5e-05
-5e-05
-4e-05
-4e-05
-4e-05
-4e-05
-4e-05
-3e-05
-3e-05
-3e-05
-3e-05
-3e-05
-2e-05
-2e-05
-2e-05
-2e-05
-2e-05
-2e-05
-1e-05
-1e-05
-9e-06
-8e-06
-6e-06
-4e-06
-2e-06
-0.0002
8e-17
-2e-06
-4e-06
-6e-06
-8e-06
-9e-06
-1e-05
-1e-05
-2e-05
-2e-05
-2e-05
-2e-05
-2e-05
-2e-05
-3e-05
-3e-05
-3e-05
-3e-05
-3e-05
-4e-05
-4e-05
-4e-05
-4e-05
-4e-05
-5e-05
-5e-05
-5e-05
-5e-05
-5e-05
-6e-05
-6e-05
-6e-05
-6e-05
-6e-05
-7e-05
-7e-05
-7e-05
-7e-05
-7e-05
-7e-05
-8e-05
-8e-05
-8e-05
-8e-05
-8e-05
-9e-05
-9e-05
-9e-05
-9e-05
-9e-05
-0.0001
-0.0001
-0.0001
-0.0001
-0.0001
-0.0001
-0.0001
-0.0001
-0.0001
-0.0001
-0.0001
-0.0001
-0.0001
-0.0001
-0.0001
-0.0001
-0.0001
-0.0001
-0.0001
-0.0001
-0.0001
-0.0001
-0.0001
-0.0001
-0.0001
-0.0001
-0.0001
-0.0001
-0.0001
-0.0002
-0.0002
-0.0002
-0.0002
-0.0002
-0.0002
-0.0002
-0.0002
-0.0002
-0.0002
4e-16
2e-16
-1e-16
2e-16
-2e-16
2e-16
-1e-16
1e-16
3e-16
-2e-06
-2e-06
-2e-06
-2e-06
-2e-06
-2e-06
-2e-06
-2e-06
-2e-06
-4e-06
-4e-06
-4e-06
-4e-06
-4e-06
-4e-06
-4e-06
-4e-06
-4e-06
-6e-06
-6e-06
-6e-06
-6e-06
-6e-06
-6e-06
-6e-06
-6e-06
-6e-06
-8e-06
-8e-06
-8e-06
-8e-06
-8e-06
-8e-06
-8e-06
-8e-06
-8e-06
-9e-06
-9e-06
-9e-06
-9e-06
-9e-06
-9e-06
-9e-06
-9e-06
-9e-06
-1e-05
-1e-05
-1e-05
-1e-05
-1e-05
-1e-05
-1e-05
-1e-05
-1e-05
-1e-05
-1e-05
-1e-05
-1e-05
-1e-05
-1e-05
-1e-05
-1e-05
-1e-05
-2e-05
-2e-05
-2e-05
-2e-05
-2e-05
-2e-05
-2e-05
-2e-05
-2e-05
-2e-05
-2e-05
-2e-05
-2e-05
-2e-05
-2e-05
-2e-05
-2e-05
-2e-05
-2e-05
-2e-05
-2e-05
-2e-05
-2e-05
-2e-05
-2e-05
-2e-05
-2e-05
-2e-05
-2e-05
-2e-05
-2e-05
-2e-05
-2e-05
-2e-05
-2e-05
-2e-05
-2e-05
-2e-05
-2e-05
-2e-05
-2e-05
-2e-05
-2e-05
-2e-05
-2e-05
-2e-05
-2e-05
-2e-05
-2e-05
-2e-05
-2e-05
-2e-05
-2e-05
-2e-05
-3e-05
-3e-05
-3e-05
-3e-05
-3e-05
-3e-05
-3e-05
-3e-05
-3e-05
-3e-05
-3e-05
-3e-05
-3e-05
-3e-05
-3e-05
-3e-05
-3e-05
-3e-05
-3e-05
-3e-05
-3e-05
-3e-05
-3e-05
-3e-05
-3e-05
-3e-05
-3e-05
-3e-05
-3e-05
-3e-05
-3e-05
-3e-05
-3e-05
-3e-05
-3e-05
-3e-05
-3e-05
-3e-05
-3e-05
-3e-05
-3e-05
-3e-05
-3e-05
-3e-05
-3e-05
-4e-05
-4e-05
-4e-05
-4e-05
-4e-05
-4e-05
-4e-05
-4e-05
-4e-05
-4e-05
-4e-05
-4e-05
-4e-05
-4e-05
-4e-05
-4e-05
-4e-05
-4e-05
-4e-05
-4e-05
-4e-05
-4e-05
-4e-05
-4e-05
-4e-05
-4e-05
-4e-05
-4e-05
-4e-05
-4e-05
-4e-05
-4e-05
-4e-05
-4e-05
-4e-05
-4e-05
-4e-05
-4e-05
-4e-05
-4e-05
-4e-05
-4e-05
-4e-05
-4e-05
-4e-05
-5e-05
-5e-05
-5e-05
-5e-05
-5e-05
-5e-05
-5e-05
-5e-05
-5e-05
-5e-05
-5e-05
-5e-05
-5e-05
-5e-05
-5e-05
-5e-05
-5e-05
-5e-05
-5e-05
-5e-05
-5e-05
-5e-05
-5e-05
-5e-05
-5e-05
-5e-05
-5e-05
-5e-05
-5e-05
-5e-05
-5e-05
-5e-05
-5e-05
-5e-05
-5e-05
-5e-05
-5e-05
-5e-05
-5e-05
-5e-05
-5e-05
-5e-05
-5e-05
-5e-05
-5e-05
-6e-05
-6e-05
-6e-05
-6e-05
-6e-05
-6e-05
-6e-05
-6e-05
-6e-05
-6e-05
-6e-05
-6e-05
-6e-05
-6e-05
-6e-05
-6e-05
-6e-05
-6e-05
-6e-05
-6e-05
-6e-05
-6e-05
-6e-05
-6e-05
-6e-05
-6e-05
-6e-05
-6e-05
-6e-05
-6e-05
-6e-05
-6e-05
-6e-05
-6e-05
-6e-05
-6e-05
-6e-05
-6e-05
-6e-05
-6e-05
-6e-05
-6e-05
-6e-05
-6e-05
-6e-05
-7e-05
-7e-05
-7e-05
-7e-05
-7e-05
-7e-05
-7e-05
-7e-05
-7e-05
-7e-05
-7e-05
-7e-05
-7e-05
-7e-05
-7e-05
-7e-05
-7e-05
-7e-05
-7e-05
-7e-05
-7e-05
-7e-05
-7e-05
-7e-05
-7e-05
-7e-05
-7e-05
-7e-05
-7e-05
-7e-05
-7e-05
-7e-05
-7e-05
-7e-05
-7e-05
-7e-05
-7e-05
-7e-05
-7e-05
-7e-05
-7e-05
-7e-05
-7e-05
-7e-05
-7e-05
-7e-05
-7e-05
-7e-05
-7e-05
-7e-05
-7e-05
-7e-05
-7e-05
-7e-05
-8e-05
-8e-05
-8e-05
-8e-05
-8e-05
-8e-05
-8e-05
-8e-05
-8e-05
-8e-05
-8e-05
-8e-05
-8e-05
-8e-05
-8e-05
-8e-05
-8e-05
-8e-05
-8e-05
-8e-05
-8e-05
-8e-05
-8e-05
-8e-05
-8e-05
-8e-05
-8e-05
-8e-05
-8e-05
-8e-05
-8e-05
-8e-05
-8e-05
-8e-05
-8e-05
-8e-05
-8e-05
-8e-05
-8e-05
-8e-05
-8e-05
-8e-05
-8e-05
-8e-05
-8e-05
-9e-05
-9e-05
-9e-05
-9e-05
-9e-05
-9e-05
-9e-05
-9e-05
-9e-05
-9e-05
-9e-05
-9e-05
-9e-05
-9e-05
-9e-05
-9e-05
-9e-05
-9e-05
-9e-05
-9e-05
-9e-05
-9e-05
-9e-05
-9e-05
-9e-05
-9e-05
-9e-05
-9e-05
-9e-05
-9e-05
-9e-05
-9e-05
-9e-05
-9e-05
-9e-05
-9e-05
-9e-05
-9e-05
-9e-05
-9e-05
-9e-05
-9e-05
-9e-05
-9e-05
-9e-05
-0.0001
-0.0001
-0.0001
-0.0001
-0.0001
-0.0001
-0.0001
-0.0001
-0.0001
-0.0001
-0.0001
-0.0001
-0.0001
-0.0001
-0.0001
-0.0001
-0.0001
-0.0001
-0.0001
-0.0001
-0.0001
-0.0001
-0.0001
-0.0001
-0.0001
-0.0001
-0.0001
-0.0001
-0.0001
-0.0001
-0.0001
-0.0001
-0.0001
-0.0001
-0.0001
-0.0001
-0.0001
-0.0001
-0.0001
-0.0001
-0.0001
-0.0001
-0.0001
-0.0001
-0.0001
-0.0001
-0.0001
-0.0001
-0.0001
-0.0001
-0.0001
-0.0001
-0.0001
-0.0001
-0.0001
-0.0001
-0.0001
-0.0001
-0.0001
-0.0001
-0.0001
-0.0001
-0.0001
-0.0001
-0.0001
-0.0001
-0.0001
-0.0001
-0.0001
-0.0001
-0.0001
-0.0001
-0.0001
-0.0001
-0.0001
-0.0001
-0.0001
-0.0001
-0.0001
-0.0001
-0.0001
-0.0001
-0.0001
-0.0001
-0.0001
-0.0001
-0.0001
-0.0001
-0.0001
-0.0001
-0.0001
-0.0001
-0.0001
-0.0001
-0.0001
-0.0001
-0.0001
-0.0001
-0.0001
-0.0001
-0.0001
-0.0001
-0.0001
-0.0001
-0.0001
-0.0001
-0.0001
-0.0001
-0.0001
-0.0001
-0.0001
-0.0001
-0.0001
-0.0001
-0.0001
-0.0001
-0.0001
-0.0001
-0.0001
-0.0001
-0.0001
-0.0001
-0.0001
-0.0001
-0.0001
-0.0001
-0.0001
-0.0001
-0.0001
-0.0001
-0.0001
-0.0001
-0.0001
-0.0001
-0.0001
-0.0001
-0.0001
-0.0001
-0.0001
-0.0001
-0.0001
-0.0001
-0.0001
-0.0001
-0.0001
-0.0001
-0.0001
-0.0001
-0.0001
-0.0001
-0.0001
-0.0001
-0.0001
-0.0001
-0.0001
-0.0001
-0.0001
-0.0001
-0.0001
-0.0001
-0.0001
-0.0001
-0.0001
-0.0001
-0.0001
-0.0001
-0.0001
-0.0001
-0.0001
-0.0001
-0.0001
-0.0001
-0.0001
-0.0001
-0.0001
-0.0001
-0.0001
-0.0001
-0.0001
-0.0001
-0.0001
-0.0001
-0.0001
-0.0001
-0.0001
-0.0001
-0.0001
-0.0001
-0.0001
-0.0001
-0.0001
-0.0001
-0.0001
-0.0001
-0.0001
-0.0001
-0.0001
-0.0001
-0.0001
-0.0001
-0.0001
-0.0001
-0.0001
-0.0001
-0.0001
-0.0001
-0.0001
-0.0001
-0.0001
-0.0001
-0.0001
-0.0001
-0.0001
-0.0001
-0.0001
-0.0001
-0.0001
-0.0001
-0.0001
-0.0001
-0.0001
-0.0001
-0.0001
-0.0001
-0.0001
-0.0001
-0.0001
-0.0001
-0.0001
-0.0001
-0.0001
-0.0001
-0.0001
-0.0001
-0.0001
-0.0001
-0.0001
-0.0001
-0.0001
-0.0001
-0.0001
-0.0001
-0.0001
-0.0001
-0.0001
-0.0001
-0.0001
-0.0001
-0.0001
-0.0001
-0.0001
-0.0001
-0.0001
-0.0001
-0.0001
-0.0001
-0.0001
-0.0001
-0.0001
-0.0001
-0.0001
-0.0002
-0.0002
-0.0002
-0.0002
-0.0002
-0.0002
-0.0002
-0.0002
-0.0002
SCALARS strain_1 float
LOOKUP_TABLE default
-0.000071
-0.114020
-0.112297
-0.110564
-0.108824
-0.107076
-0.105320
-0.103557
-0.101788
-0.100012
-0.098231
-0.096445
-0.094653
-0.092858
-0.091059
-0.089257
-0.087452
-0.085645
-0.083837
-0.082028
-0.080219
-0.078411
-0.076604
-0.074799
-0.072996
-0.071197
-0.069402
-0.067612
-0.065827
-0.064048
-0.062277
-0.060514
-0.058759
-0.057014
-0.055280
-0.053557
-0.051846
-0.050148
-0.048464
-0.046794
-0.045140
-0.043503
-0.041883
-0.040281
-0.038698
-0.037136
-0.035593
-0.034073
-0.032575
-0.031101
-0.029651
-0.028225
-0.026826
-0.025453
-0.024108
-0.022790
-0.021501
-0.020242
-0.019013
-0.017815
-0.016648
-0.015513
-0.014411
-0.013342
-0.012306
-0.011304
-0.010337
-0.009404
-0.008506
-0.007644
-0.006816
-0.006025
-0.005269
-0.004549
-0.003866
-0.003217
-0.002605
-0.002028
-0.001486
-0.000980
-0.000509
-0.114121
-0.000002
-0.000441
-0.000914
-0.001422
-0.001965
-0.002543
-0.003157
-0.003807
-0.004493
-0.005214
-0.005972
-0.006765
-0.007594
-0.008459
-0.009359
-0.010294
-0.011263
-0.012267
-0.013306
-0.014377
-0.015482
-0.016619
-0.017788
-0.018989
-0.020221
-0.021482
-0.022774
-0.024094
-0.025442
-0.026818
-0.028220
-0.029647
-0.031100
-0.032577
-0.034078
-0.035601
-0.037145
-0.038711
-0.040296
-0.041900
-0.043523
-0.045164
-0.046820
-0.048492
-0.050179
-0.051879
-0.053593
-0.055318
-0.057056
-0.058803
-0.060560
-0.062326
-0.064099
-0.065880
-0.067666
-0.069459
-0.071257
-0.073059
-0.074863
-0.076671
-0.078480
-0.080290
-0.082101
-0.083912
-0.085722
-0.087530
-0.089337
-0.091141
-0.092942
-0.094739
-0.096532
-0.098320
-0.100103
-0.101880
-0.103651
-0.105415
-0.107172
-0.108922
-0.110663
-0.112397
-0.114112
-0.114102
-0.114093
-0.114083
-0.114072
-0.114062
-0.114052
-0.114041
-0.114031
-0.000058
-0.000046
-0.000035
-0.000026
-0.000018
-0.000012
-0.000008
-0.000005
-0.000003
-0.000441
-0.000443
-0.000445
-0.000450
-0.000456
-0.000463
-0.000473
-0.000483
-0.000495
-0.000913
-0.000915
-0.000918
-0.000922
-0.000928
-0.000935
-0.000944
-0.000954
-0.000967
-0.001421
-0.001422
-0.001425
-0.001429
-0.001435
-0.001442
-0.001451
-0.001461
-0.001473
-0.001964
-0.001965
-0.001967
-0.001972
-0.001977
-0.001984
-0.001993
-0.002003
-0.002014
-0.002542
-0.002543
-0.002546
-0.002549
-0.002555
-0.002562
-0.002570
-0.002580
-0.002592
-0.003156
-0.003157
-0.003159
-0.003163
-0.003168
-0.003174
-0.003183
-0.003193
-0.003204
-0.003806
-0.003806
-0.003808
-0.003812
-0.003817
-0.003824
-0.003832
-0.003841
-0.003853
-0.004491
-0.004491
-0.004494
-0.004497
-0.004502
-0.004508
-0.004516
-0.004526
-0.004537
-0.005213
-0.005213
-0.005215
-0.005218
-0.005223
-0.005229
-0.005237
-0.005246
-0.005257
-0.005970
-0.005970
-0.005972
-0.005974
-0.005979
-0.005985
-0.005993
-0.006002
-0.006013
-0.006763
-0.006763
-0.006764
-0.006767
-0.006771
-0.006778
-0.006785
-0.006794
-0.006804
-0.007592
-0.007592
-0.007593
-0.007596
-0.007600
-0.007606
-0.007613
-0.007621
-0.007632
-0.008456
-0.008456
-0.008457
-0.008459
-0.008463
-0.008469
-0.008476
-0.008484
-0.008495
-0.009356
-0.009356
-0.009356
-0.009359
-0.009362
-0.009367
-0.009374
-0.009383
-0.009392
-0.010291
-0.010290
-0.010291
-0.010293
-0.010296
-0.010301
-0.010308
-0.010316
-0.010326
-0.011261
-0.011260
-0.011260
-0.011262
-0.011265
-0.011270
-0.011276
-0.011284
-0.011293
-0.012265
-0.012263
-0.012263
-0.012265
-0.012268
-0.012273
-0.012279
-0.012286
-0.012296
-0.013303
-0.013301
-0.013301
-0.013303
-0.013305
-0.013310
-0.013316
-0.013323
-0.013332
-0.014374
-0.014372
-0.014372
-0.014374
-0.014376
-0.014380
-0.014386
-0.014393
-0.014401
-0.015479
-0.015476
-0.015476
-0.015477
-0.015480
-0.015483
-0.015488
-0.015495
-0.015504
-0.016616
-0.016613
-0.016613
-0.016614
-0.016616
-0.016619
-0.016624
-0.016631
-0.016639
-0.017785
-0.017782
-0.017782
-0.017782
-0.017784
-0.017787
-0.017793
-0.017798
-0.017806
-0.018986
-0.018983
-0.018982
-0.018983
-0.018984
-0.018987
-0.018991
-0.018997
-0.019005
-0.020217
-0.020214
-0.020213
-0.020213
-0.020214
-0.020217
-0.020221
-0.020227
-0.020234
-0.021478
-0.021475
-0.021474
-0.021474
-0.021475
-0.021478
-0.021481
-0.021487
-0.021494
-0.022769
-0.022766
-0.022765
-0.022764
-0.022765
-0.022767
-0.022771
-0.022776
-0.022783
-0.024089
-0.024086
-0.024084
-0.024083
-0.024084
-0.024086
-0.024090
-0.024094
-0.024100
-0.025438
-0.025433
-0.025432
-0.025431
-0.025431
-0.025433
-0.025436
-0.025441
-0.025447
-0.026813
-0.026809
-0.026806
-0.026805
-0.026806
-0.026808
-0.026810
-0.026814
-0.026820
-0.028215
-0.028211
-0.028208
-0.028207
-0.028207
-0.028208
-0.028211
-0.028214
-0.028219
-0.029642
-0.029638
-0.029636
-0.029634
-0.029634
-0.029635
-0.029637
-0.029641
-0.029645
-0.031095
-0.031091
-0.031088
-0.031086
-0.031085
-0.031086
-0.031088
-0.031091
-0.031095
-0.032572
-0.032568
-0.032564
-0.032562
-0.032562
-0.032562
-0.032564
-0.032566
-0.032570
-0.034072
-0.034068
-0.034064
-0.034062
-0.034061
-0.034061
-0.034063
-0.034065
-0.034069
-0.035595
-0.035590
-0.035587
-0.035584
-0.035583
-0.035583
-0.035584
-0.035586
-0.035589
-0.037140
-0.037135
-0.037131
-0.037128
-0.037127
-0.037126
-0.037127
-0.037129
-0.037131
-0.038705
-0.038700
-0.038696
-0.038693
-0.038691
-0.038691
-0.038691
-0.038693
-0.038695
-0.040290
-0.040285
-0.040281
-0.040278
-0.040276
-0.040275
-0.040275
-0.040276
-0.040278
-0.041894
-0.041889
-0.041885
-0.041882
-0.041879
-0.041878
-0.041878
-0.041878
-0.041880
-0.043517
-0.043512
-0.043507
-0.043504
-0.043501
-0.043499
-0.043499
-0.043499
-0.043500
-0.045157
-0.045151
-0.045146
-0.045143
-0.045140
-0.045138
-0.045138
-0.045137
-0.045139
-0.046813
-0.046808
-0.046802
-0.046798
-0.046796
-0.046794
-0.046792
-0.046792
-0.046792
-0.048485
-0.048479
-0.048474
-0.048470
-0.048467
-0.048464
-0.048463
-0.048462
-0.048462
-0.050172
-0.050166
-0.050160
-0.050156
-0.050153
-0.050150
-0.050148
-0.050147
-0.050147
-0.051872
-0.051866
-0.051860
-0.051856
-0.051852
-0.051850
-0.051847
-0.051846
-0.051845
-0.053586
-0.053579
-0.053574
-0.053569
-0.053565
-0.053562
-0.053559
-0.053558
-0.053557
-0.055311
-0.055305
-0.055299
-0.055294
-0.055290
-0.055286
-0.055284
-0.055282
-0.055280
-0.057048
-0.057042
-0.057036
-0.057030
-0.057025
-0.057022
-0.057019
-0.057017
-0.057015
-0.058795
-0.058788
-0.058783
-0.058777
-0.058772
-0.058768
-0.058765
-0.058762
-0.058760
-0.060552
-0.060545
-0.060539
-0.060533
-0.060528
-0.060524
-0.060520
-0.060517
-0.060515
-0.062318
-0.062311
-0.062304
-0.062298
-0.062293
-0.062289
-0.062285
-0.062282
-0.062279
-0.064091
-0.064084
-0.064077
-0.064071
-0.064066
-0.064061
-0.064057
-0.064053
-0.064051
-0.065872
-0.065864
-0.065858
-0.065852
-0.065846
-0.065841
-0.065836
-0.065833
-0.065829
-0.067659
-0.067651
-0.067644
-0.067638
-0.067632
-0.067627
-0.067622
-0.067618
-0.067614
-0.069451
-0.069444
-0.069436
-0.069430
-0.069424
-0.069419
-0.069413
-0.069409
-0.069405
-0.071248
-0.071241
-0.071234
-0.071227
-0.071221
-0.071215
-0.071210
-0.071205
-0.071201
-0.073050
-0.073042
-0.073035
-0.073028
-0.073022
-0.073015
-0.073010
-0.073005
-0.073000
-0.074855
-0.074847
-0.074839
-0.074832
-0.074825
-0.074819
-0.074813
-0.074808
-0.074803
-0.076662
-0.076654
-0.076646
-0.076639
-0.076632
-0.076625
-0.076620
-0.076614
-0.076609
-0.078471
-0.078463
-0.078455
-0.078448
-0.078441
-0.078434
-0.078428
-0.078421
-0.078416
-0.080281
-0.080273
-0.080265
-0.080257
-0.080250
-0.080244
-0.080237
-0.080230
-0.080225
-0.082092
-0.082084
-0.082076
-0.082068
-0.082061
-0.082053
-0.082047
-0.082040
-0.082034
-0.083903
-0.083895
-0.083887
-0.083878
-0.083871
-0.083864
-0.083856
-0.083850