# vtk DataFile Version 2.0
Generated volume Mesh
ASCII
DATASET UNSTRUCTURED_GRID
POINTS 891 float
0.005000 0.100000 0.000000
0.005000 0.000000 0.000000
0.005000 0.001250 0.000000
0.005000 0.002500 0.000000
0.005000 0.003750 0.000000
0.005000 0.005000 0.000000
0.005000 0.006250 0.000000
0.005000 0.007500 0.000000
0.005000 0.008750 0.000000
0.005000 0.010000 0.000000
0.005000 0.011250 0.000000
0.005000 0.012500 0.000000
0.005000 0.013750 0.000000
0.005000 0.015000 0.000000
0.005000 0.016250 0.000000
0.005000 0.017500 0.000000
0.005000 0.018750 0.000000
0.005000 0.020000 0.000000
0.005000 0.021250 0.000000
0.005000 0.022500 0.000000
0.005000 0.023750 0.000000
0.005000 0.025000 0.000000
0.005000 0.026250 0.000000
0.005000 0.027500 0.000000
0.005000 0.028750 0.000000
0.005000 0.030000 0.000000
0.005000 0.031250 0.000000
0.005000 0.032500 0.000000
0.005000 0.033750 0.000000
0.005000 0.035000 0.000000
0.005000 0.036250 0.000000
0.005000 0.037500 0.000000
0.005000 0.038750 0.000000
0.005000 0.040000 0.000000
0.005000 0.041250 0.000000
0.005000 0.042500 0.000000
0.005000 0.043750 0.000000
0.005000 0.045000 0.000000
0.005000 0.046250 0.000000
0.005000 0.047500 0.000000
0.005000 0.048750 0.000000
0.005000 0.050000 0.000000
0.005000 0.051250 0.000000
0.005000 0.052500 0.000000
0.005000 0.053750 0.000000
0.005000 0.055000 0.000000
0.005000 0.056250 0.000000
0.005000 0.057500 0.000000
0.005000 0.058750 0.000000
0.005000 0.060000 0.000000
0.005000 0.061250 0.000000
0.005000 0.062500 0.000000
0.005000 0.063750 0.000000
0.005000 0.065000 0.000000
0.005000 0.066250 0.000000
0.005000 0.067500 0.000000
0.005000 0.068750 0.000000
0.005000 0.070000 0.000000
0.005000 0.071250 0.000000
0.005000 0.072500 0.000000
0.005000 0.073750 0.000000
0.005000 0.075000 0.000000
0.005000 0.076250 0.000000
0.005000 0.077500 0.000000
0.005000 0.078750 0.000000
0.005000 0.080000 0.000000
0.005000 0.081250 0.000000
0.005000 0.082500 0.000000
0.005000 0.083750 0.000000
0.005000 0.085000 0.000000
0.005000 0.086250 0.000000
0.005000 0.087500 0.000000
0.005000 0.088750 0.000000
0.005000 0.090000 0.000000
0.005000 0.091250 0.000000
0.005000 0.092500 0.000000
0.005000 0.093750 0.000000
0.005000 0.095000 0.000000
0.005000 0.096250 0.000000
0.005000 0.097500 0.000000
0.005000 0.098750 0.000000
0.000000 0.000000 0.000000
0.000000 0.100000 0.000000
0.000000 0.098750 0.000000
0.000000 0.097500 0.000000
0.000000 0.096250 0.000000
0.000000 0.095000 0.000000
0.000000 0.093750 0.000000
0.000000 0.092500 0.000000
0.000000 0.091250 0.000000
0.000000 0.090000 0.000000
0.000000 0.088750 0.000000
0.000000 0.087500 0.000000
0.000000 0.086250 0.000000
0.000000 0.085000 0.000000
0.000000 0.083750 0.000000
0.000000 0.082500 0.000000
0.000000 0.081250 0.000000
0.000000 0.080000 0.000000
0.000000 0.078750 0.000000
0.000000 0.077500 0.000000
0.000000 0.076250 0.000000
0.000000 0.075000 0.000000
0.000000 0.073750 0.000000
0.000000 0.072500 0.000000
0.000000 0.071250 0.000000
0.000000 0.070000 0.000000
0.000000 0.068750 0.000000
0.000000 0.067500 0.000000
0.000000 0.066250 0.000000
0.000000 0.065000 0.000000
0.000000 0.063750 0.000000
0.000000 0.062500 0.000000
0.000000 0.061250 0.000000
0.000000 0.060000 0.000000
0.000000 0.058750 0.000000
0.000000 0.057500 0.000000
0.000000 0.056250 0.000000
0.000000 0.055000 0.000000
0.000000 0.053750 0.000000
0.000000 0.052500 0.000000
0.000000 0.051250 0.000000
0.000000 0.050000 0.000000
0.000000 0.048750 0.000000
0.000000 0.047500 0.000000
0.000000 0.046250 0.000000
0.000000 0.045000 0.000000
0.000000 0.043750 0.000000
0.000000 0.042500 0.000000
0.000000 0.041250 0.000000
0.000000 0.040000 0.000000
0.000000 0.038750 0.000000
0.000000 0.037500 0.000000
0.000000 0.036250 0.000000
0.000000 0.035000 0.000000
0.000000 0.033750 0.000000
0.000000 0.032500 0.000000
0.000000 0.031250 0.000000
0.000000 0.030000 0.000000
0.000000 0.028750 0.000000
0.000000 0.027500 0.000000
0.000000 0.026250 0.000000
0.000000 0.025000 0.000000
0.000000 0.023750 0.000000
0.000000 0.022500 0.000000
0.000000 0.021250 0.000000
0.000000 0.020000 0.000000
0.000000 0.018750 0.000000
0.000000 0.017500 0.000000
0.000000 0.016250 0.000000
0.000000 0.015000 0.000000
0.000000 0.013750 0.000000
0.000000 0.012500 0.000000
0.000000 0.011250 0.000000
0.000000 0.010000 0.000000
0.000000 0.008750 0.000000
0.000000 0.007500 0.000000
0.000000 0.006250 0.000000
0.000000 0.005000 0.000000
0.000000 0.003750 0.000000
0.000000 0.002500 0.000000
0.000000 0.001250 0.000000
0.000500 0.000000 0.000000
0.001000 0.000000 0.000000
0.001500 0.000000 0.000000
0.002000 0.000000 0.000000
0.002500 0.000000 0.000000
0.003000 0.000000 0.000000
0.003500 0.000000 0.000000
0.004000 0.000000 0.000000
0.004500 0.000000 0.000000
0.004500 0.100000 0.000000
0.004000 0.100000 0.000000
0.003500 0.100000 0.000000
0.003000 0.100000 0.000000
0.002500 0.100000 0.000000
0.002000 0.100000 0.000000
0.001500 0.100000 0.000000
0.001000 0.100000 0.000000
0.000500 0.100000 0.000000
0.000500 0.098750 0.000000
0.001000 0.098750 0.000000
0.001500 0.098750 0.000000
0.002000 0.098750 0.000000
0.002500 0.098750 0.000000
0.003000 0.098750 0.000000
0.003500 0.098750 0.000000
0.004000 0.098750 0.000000
0.004500 0.098750 0.000000
0.000500 0.097500 0.000000
0.001000 0.097500 0.000000
0.001500 0.097500 0.000000
0.002000 0.097500 0.000000
0.002500 0.097500 0.000000
0.003000 0.097500 0.000000
0.003500 0.097500 0.000000
0.004000 0.097500 0.000000
0.004500 0.097500 0.000000
0.000500 0.096250 0.000000
0.001000 0.096250 0.000000
0.001500 0.096250 0.000000
0.002000 0.096250 0.000000
0.002500 0.096250 0.000000
0.003000 0.096250 0.000000
0.003500 0.096250 0.000000
0.004000 0.096250 0.000000
0.004500 0.096250 0.000000
0.000500 0.095000 0.000000
0.001000 0.095000 0.000000
0.001500 0.095000 0.000000
0.002000 0.095000 0.000000
0.002500 0.095000 0.000000
0.003000 0.095000 0.000000
0.003500 0.095000 0.000000
0.004000 0.095000 0.000000
0.004500 0.095000 0.000000
0.000500 0.093750 0.000000
0.001000 0.093750 0.000000
0.001500 0.093750 0.000000
0.002000 0.093750 0.000000
0.002500 0.093750 0.000000
0.003000 0.093750 0.000000
0.003500 0.093750 0.000000
0.004000 0.093750 0.000000
0.004500 0.093750 0.000000
0.000500 0.092500 0.000000
0.001000 0.092500 0.000000
0.001500 0.092500 0.000000
0.002000 0.092500 0.000000
0.002500 0.092500 0.000000
0.003000 0.092500 0.000000
0.003500 0.092500 0.000000
0.004000 0.092500 0.000000
0.004500 0.092500 0.000000
0.000500 0.091250 0.000000
0.001000 0.091250 0.000000
0.001500 0.091250 0.000000
0.002000 0.091250 0.000000
0.002500 0.091250 0.000000
0.003000 0.091250 0.000000
0.003500 0.091250 0.000000
0.004000 0.091250 0.000000
0.004500 0.091250 0.000000
0.000500 0.090000 0.000000
0.001000 0.090000 0.000000
0.001500 0.090000 0.000000
0.002000 0.090000 0.000000
0.002500 0.090000 0.000000
0.003000 0.090000 0.000000
0.003500 0.090000 0.000000
0.004000 0.090000 0.000000
0.004500 0.090000 0.000000
0.000500 0.088750 0.000000
0.001000 0.088750 0.000000
0.001500 0.088750 0.000000
0.002000 0.088750 0.000000
0.002500 0.088750 0.000000
0.003000 0.088750 0.000000
0.003500 0.088750 0.000000
0.004000 0.088750 0.000000
0.004500 0.088750 0.000000
0.000500 0.087500 0.000000
0.001000 0.087500 0.000000
0.001500 0.087500 0.000000
0.002000 0.087500 0.000000
0.002500 0.087500 0.000000
0.003000 0.087500 0.000000
0.003500 0.087500 0.000000
0.004000 0.087500 0.000000
0.004500 0.087500 0.000000
0.000500 0.086250 0.000000
0.001000 0.086250 0.000000
0.001500 0.086250 0.000000
0.002000 0.086250 0.000000
0.002500 0.086250 0.000000
0.003000 0.086250 0.000000
0.003500 0.086250 0.000000
0.004000 0.086250 0.000000
0.004500 0.086250 0.000000
0.000500 0.085000 0.000000
0.001000 0.085000 0.000000
0.001500 0.085000 0.000000
0.002000 0.085000 0.000000
0.002500 0.085000 0.000000
0.003000 0.085000 0.000000
0.003500 0.085000 0.000000
0.004000 0.085000 0.000000
0.004500 0.085000 0.000000
0.000500 0.083750 0.000000
0.001000 0.083750 0.000000
0.001500 0.083750 0.000000
0.002000 0.083750 0.000000
0.002500 0.083750 0.000000
0.003000 0.083750 0.000000
0.003500 0.083750 0.000000
0.004000 0.083750 0.000000
0.004500 0.083750 0.000000
0.000500 0.082500 0.000000
0.001000 0.082500 0.000000
0.001500 0.082500 0.000000
0.002000 0.082500 0.000000
0.002500 0.082500 0.000000
0.003000 0.082500 0.000000
0.003500 0.082500 0.000000
0.004000 0.082500 0.000000
0.004500 0.082500 0.000000
0.000500 0.081250 0.000000
0.001000 0.081250 0.000000
0.001500 0.081250 0.000000
0.002000 0.081250 0.000000
0.002500 0.081250 0.000000
0.003000 0.081250 0.000000
0.003500 0.081250 0.000000
0.004000 0.081250 0.000000
0.004500 0.081250 0.000000
0.000500 0.080000 0.000000
0.001000 0.080000 0.000000
0.001500 0.080000 0.000000
0.002000 0.080000 0.000000
0.002500 0.080000 0.000000
0.003000 0.080000 0.000000
0.003500 0.080000 0.000000
0.004000 0.080000 0.000000
0.004500 0.080000 0.000000
0.000500 0.078750 0.000000
0.001000 0.078750 0.000000
0.001500 0.078750 0.000000
0.002000 0.078750 0.000000
0.002500 0.078750 0.000000
0.003000 0.078750 0.000000
0.003500 0.078750 0.000000
0.004000 0.078750 0.000000
0.004500 0.078750 0.000000
0.000500 0.077500 0.000000
0.001000 0.077500 0.000000
0.001500 0.077500 0.000000
0.002000 0.077500 0.000000
0.002500 0.077500 0.000000
0.003000 0.077500 0.000000
0.003500 0.077500 0.000000
0.004000 0.077500 0.000000
0.004500 0.077500 0.000000
0.000500 0.076250 0.000000
0.001000 0.076250 0.000000
0.001500 0.076250 0.000000
0.002000 0.076250 0.000000
0.002500 0.076250 0.000000
0.003000 0.076250 0.000000
0.003500 0.076250 0.000000
0.004000 0.076250 0.000000
0.004500 0.076250 0.000000
0.000500 0.075000 0.000000
0.001000 0.075000 0.000000
0.001500 0.075000 0.000000
0.002000 0.075000 0.000000
0.002500 0.075000 0.000000
0.003000 0.075000 0.000000
0.003500 0.075000 0.000000
0.004000 0.075000 0.000000
0.004500 0.075000 0.000000
0.000500 0.073750 0.000000
0.001000 0.073750 0.000000
0.001500 0.073750 0.000000
0.002000 0.073750 0.000000
0.002500 0.073750 0.000000
0.003000 0.073750 0.000000
[...]
POINT_DATA 891
SCALARS u1 float
LOOKUP_TABLE default
2e-15
-5e-06
-5e-06
-5e-06
-5e-06
-5e-06
-5e-06
-5e-06
-5e-06
-5e-06
-5e-06
-5e-06
-5e-06
-5e-06
-5e-06
-5e-06
-5e-06
-5e-06
-5e-06
-5e-06
-5e-06
-5e-06
-5e-06
-5e-06
-5e-06
-5e-06
-5e-06
-5e-06
-5e-06
-5e-06
-5e-06
-5e-06
-5e-06
-5e-06
-5e-06
-5e-06
-5e-06
-5e-06
-5e-06
-5e-06
-5e-06
-5e-06
-5e-06
-5e-06
-5e-06
-5e-06
-5e-06
-5e-06
-5e-06
-5e-06
-5e-06
-5e-06
-5e-06
-5e-06
-5e-06
-5e-06
-5e-06
-5e-06
-5e-06
-5e-06
-5e-06
-5e-06
-5e-06
-5e-06
-5e-06
-5e-06
-5e-06
-5e-06
-5e-06
-5e-06
-5e-06
-5e-06
-5e-06
-5e-06
-5e-06
-5e-06
-5e-06
-5e-06
-5e-06
-5e-06
-4e-06
5e-06
7e-16
4e-06
5e-06
5e-06
5e-06
5e-06
5e-06
5e-06
5e-06
5e-06
5e-06
5e-06
5e-06
5e-06
5e-06
5e-06
5e-06
5e-06
5e-06
5e-06
5e-06
5e-06
5e-06
5e-06
5e-06
5e-06
5e-06
5e-06
5e-06
5e-06
5e-06
5e-06
5e-06
5e-06
5e-06
5e-06
5e-06
5e-06
5e-06
5e-06
5e-06
5e-06
5e-06
5e-06
5e-06
5e-06
5e-06
5e-06
5e-06
5e-06
5e-06
5e-06
5e-06
5e-06
5e-06
5e-06
5e-06
5e-06
5e-06
5e-06
5e-06
5e-06
5e-06
5e-06
5e-06
5e-06
5e-06
5e-06
5e-06
5e-06
5e-06
5e-06
5e-06
5e-06
5e-06
5e-06
5e-06
5e-06
5e-06
5e-06
4e-06
3e-06
2e-06
1e-06
3e-14
-1e-06
-2e-06
-3e-06
-4e-06
-1e-16
1e-15
-5e-16
1e-16
4e-16
-9e-16
-2e-15
-1e-15
2e-15
3e-06
2e-06
1e-06
6e-07
9e-15
-6e-07
-1e-06
-2e-06
-3e-06
4e-06
3e-06
2e-06
9e-07
7e-15
-9e-07
-2e-06
-3e-06
-4e-06
4e-06
3e-06
2e-06
1e-06
7e-15
-1e-06
-2e-06
-3e-06
-4e-06
4e-06
3e-06
2e-06
1e-06
1e-14
-1e-06
-2e-06
-3e-06
-4e-06
4e-06
3e-06
2e-06
1e-06
2e-14
-1e-06
-2e-06
-3e-06
-4e-06
4e-06
3e-06
2e-06
1e-06
2e-14
-1e-06
-2e-06
-3e-06
-4e-06
4e-06
3e-06
2e-06
1e-06
2e-14
-1e-06
-2e-06
-3e-06
-4e-06
4e-06
3e-06
2e-06
1e-06
3e-14
-1e-06
-2e-06
-3e-06
-4e-06
4e-06
3e-06
2e-06
1e-06
3e-14
-1e-06
-2e-06
-3e-06
-4e-06
4e-06
3e-06
2e-06
1e-06
3e-14
-1e-06
-2e-06
-3e-06
-4e-06
4e-06
3e-06
2e-06
1e-06
3e-14
-1e-06
-2e-06
-3e-06
-4e-06
4e-06
3e-06
2e-06
1e-06
3e-14
-1e-06
-2e-06
-3e-06
-4e-06
4e-06
3e-06
2e-06
1e-06
3e-14
-1e-06
-2e-06
-3e-06
-4e-06
4e-06
3e-06
2e-06
1e-06
3e-14
-1e-06
-2e-06
-3e-06
-4e-06
4e-06
3e-06
2e-06
1e-06
3e-14
-1e-06
-2e-06
-3e-06
-4e-06
4e-06
3e-06
2e-06
1e-06
3e-14
-1e-06
-2e-06
-3e-06
-4e-06
4e-06
3e-06
2e-06
1e-06
3e-14
-1e-06
-2e-06
-3e-06
-4e-06
4e-06
3e-06
2e-06
1e-06
3e-14
-1e-06
-2e-06
-3e-06
-4e-06
4e-06
3e-06
2e-06
1e-06
3e-14
-1e-06
-2e-06
-3e-06
-4e-06
4e-06
3e-06
2e-06
1e-06
3e-14
-1e-06
-2e-06
-3e-06
-4e-06
4e-06
3e-06
2e-06
1e-06
3e-14
-1e-06
-2e-06
-3e-06
-4e-06
4e-06
3e-06
2e-06
1e-06
3e-14
-1e-06
-2e-06
-3e-06
-4e-06
4e-06
3e-06
2e-06
1e-06
3e-14
-1e-06
-2e-06
-3e-06
-4e-06
4e-06
3e-06
2e-06
1e-06
3e-14
-1e-06
-2e-06
-3e-06
-4e-06
4e-06
3e-06
2e-06
1e-06
3e-14
-1e-06
-2e-06
-3e-06
-4e-06
4e-06
3e-06
2e-06
1e-06
3e-14
-1e-06
-2e-06
-3e-06
-4e-06
4e-06
3e-06
2e-06
1e-06
3e-14
-1e-06
-2e-06
-3e-06
-4e-06
4e-06
3e-06
2e-06
1e-06
3e-14
-1e-06
-2e-06
-3e-06
-4e-06
4e-06
3e-06
2e-06
1e-06
3e-14
-1e-06
-2e-06
-3e-06
-4e-06
4e-06
3e-06
2e-06
1e-06
3e-14
-1e-06
-2e-06
-3e-06
-4e-06
4e-06
3e-06
2e-06
1e-06
3e-14
-1e-06
-2e-06
-3e-06
-4e-06
4e-06
3e-06
2e-06
1e-06
3e-14
-1e-06
-2e-06
-3e-06
-4e-06
4e-06
3e-06
2e-06
1e-06
3e-14
-1e-06
-2e-06
-3e-06
-4e-06
4e-06
3e-06
2e-06
1e-06
3e-14
-1e-06
-2e-06
-3e-06
-4e-06
4e-06
3e-06
2e-06
1e-06
3e-14
-1e-06
-2e-06
-3e-06
-4e-06
4e-06
3e-06
2e-06
1e-06
3e-14
-1e-06
-2e-06
-3e-06
-4e-06
4e-06
3e-06
2e-06
1e-06
3e-14
-1e-06
-2e-06
-3e-06
-4e-06
4e-06
3e-06
2e-06
1e-06
3e-14
-1e-06
-2e-06
-3e-06
-4e-06
4e-06
3e-06
2e-06
1e-06
3e-14
-1e-06
-2e-06
-3e-06
-4e-06
4e-06
3e-06
2e-06
1e-06
3e-14
-1e-06
-2e-06
-3e-06
-4e-06
4e-06
3e-06
2e-06
1e-06
3e-14
-1e-06
-2e-06
-3e-06
-4e-06
4e-06
3e-06
2e-06
1e-06
3e-14
-1e-06
-2e-06
-3e-06
-4e-06
4e-06
3e-06
2e-06
1e-06
3e-14
-1e-06
-2e-06
-3e-06
-4e-06
4e-06
3e-06
2e-06
1e-06
3e-14
-1e-06
-2e-06
-3e-06
-4e-06
4e-06
3e-06
2e-06
1e-06
3e-14
-1e-06
-2e-06
-3e-06
-4e-06
4e-06
3e-06
2e-06
1e-06
3e-14
-1e-06
-2e-06
-3e-06
-4e-06
4e-06
3e-06
2e-06
1e-06
3e-14
-1e-06
-2e-06
-3e-06
-4e-06
4e-06
3e-06
2e-06
1e-06
3e-14
-1e-06
-2e-06
-3e-06
-4e-06
4e-06
3e-06
2e-06
1e-06
3e-14
-1e-06
-2e-06
-3e-06
-4e-06
4e-06
3e-06
2e-06
1e-06
3e-14
-1e-06
-2e-06
-3e-06
-4e-06
4e-06
3e-06
2e-06
1e-06
3e-14
-1e-06
-2e-06
-3e-06
-4e-06
4e-06
3e-06
2e-06
1e-06
3e-14
-1e-06
-2e-06
-3e-06
-4e-06
4e-06
3e-06
2e-06
1e-06
3e-14
-1e-06
-2e-06
-3e-06
-4e-06
4e-06
3e-06
2e-06
1e-06
3e-14
-1e-06
-2e-06
-3e-06
-4e-06
4e-06
3e-06
2e-06
1e-06
3e-14
-1e-06
-2e-06
-3e-06
-4e-06
4e-06
3e-06
2e-06
1e-06
3e-14
-1e-06
-2e-06
-3e-06
-4e-06
4e-06
3e-06
2e-06
1e-06
3e-14
-1e-06
-2e-06
-3e-06
-4e-06
4e-06
3e-06
2e-06
1e-06
3e-14
-1e-06
-2e-06
-3e-06
-4e-06
4e-06
3e-06
2e-06
1e-06
3e-14
-1e-06
-2e-06
-3e-06
-4e-06
4e-06
3e-06
2e-06
1e-06
3e-14
-1e-06
-2e-06
-3e-06
-4e-06
4e-06
3e-06
2e-06
1e-06
3e-14
-1e-06
-2e-06
-3e-06
-4e-06
4e-06
3e-06
2e-06
1e-06
3e-14
-1e-06
-2e-06
-3e-06
-4e-06
4e-06
3e-06
2e-06
1e-06
3e-14
-1e-06
-2e-06
-3e-06
-4e-06
4e-06
3e-06
2e-06
1e-06
3e-14
-1e-06
-2e-06
-3e-06
-4e-06
4e-06
3e-06
2e-06
1e-06
3e-14
-1e-06
-2e-06
-3e-06
-4e-06
4e-06
3e-06
2e-06
1e-06
3e-14
-1e-06
-2e-06
-3e-06
-4e-06
4e-06
3e-06
2e-06
1e-06
3e-14
-1e-06
-2e-06
-3e-06
-4e-06
4e-06
3e-06
2e-06
1e-06
3e-14
-1e-06
-2e-06
-3e-06
-4e-06
4e-06
3e-06
2e-06
1e-06
3e-14
-1e-06
-2e-06
-3e-06
-4e-06
4e-06
3e-06
2e-06
1e-06
3e-14
-1e-06
-2e-06
-3e-06
-4e-06
4e-06
3e-06
2e-06
1e-06
3e-14
-1e-06
-2e-06
-3e-06
-4e-06
4e-06
3e-06
2e-06
1e-06
3e-14
-1e-06
-2e-06
-3e-06
-4e-06
4e-06
3e-06
2e-06
1e-06
3e-14
-1e-06
-2e-06
-3e-06
-4e-06
4e-06
3e-06
2e-06
1e-06
3e-14
-1e-06
-2e-06
-3e-06
-4e-06
4e-06
3e-06
2e-06
1e-06
3e-14
-1e-06
-2e-06
-3e-06
-4e-06
4e-06
3e-06
2e-06
1e-06
3e-14
-1e-06
-2e-06
-3e-06
-4e-06
4e-06
3e-06
2e-06
1e-06
3e-14
-1e-06
-2e-06
-3e-06
-4e-06
4e-06
3e-06
2e-06
1e-06
3e-14
-1e-06
-2e-06
-3e-06
-4e-06
4e-06
3e-06
2e-06
1e-06
3e-14
-1e-06
-2e-06
-3e-06
-4e-06
SCALARS u2 float
LOOKUP_TABLE default
-9e-16
-0.0005
-0.0005
-0.0005
-0.0005
-0.0005
-0.0005
-0.0005
-0.0005
-0.0004
-0.0004
-0.0004
-0.0004
-0.0004
-0.0004
-0.0004
-0.0004
-0.0004
-0.0004
-0.0004
-0.0004
-0.0004
-0.0004
-0.0004
-0.0004
-0.0003
-0.0003
-0.0003
-0.0003
-0.0003
-0.0003
-0.0003
-0.0003
-0.0003
-0.0003
-0.0003
-0.0003
-0.0003
-0.0003
-0.0003
-0.0003
-0.0002
-0.0002
-0.0002
-0.0002
-0.0002
-0.0002
-0.0002
-0.0002
-0.0002
-0.0002
-0.0002
-0.0002
-0.0002
-0.0002
-0.0002
-0.0002
-0.0001
-0.0001
-0.0001
-0.0001
-0.0001
-0.0001
-0.0001
-0.0001
-0.0001
-9e-05
-9e-05
-8e-05
-7e-05
-7e-05
-6e-05
-6e-05
-5e-05
-4e-05
-4e-05
-3e-05
-2e-05
-2e-05
-1e-05
-7e-06
-0.0005
-3e-16
-7e-06
-1e-05
-2e-05
-2e-05
-3e-05
-4e-05
-4e-05
-5e-05
-6e-05
-6e-05
-7e-05
-7e-05
-8e-05
-9e-05
-9e-05
-0.0001
-0.0001
-0.0001
-0.0001
-0.0001
-0.0001
-0.0001
-0.0001
-0.0001
-0.0002
-0.0002
-0.0002
-0.0002
-0.0002
-0.0002
-0.0002
-0.0002
-0.0002
-0.0002
-0.0002
-0.0002
-0.0002
-0.0002
-0.0002
-0.0002
-0.0003
-0.0003
-0.0003
-0.0003
-0.0003
-0.0003
-0.0003
-0.0003
-0.0003
-0.0003
-0.0003
-0.0003
-0.0003
-0.0003
-0.0003
-0.0003
-0.0004
-0.0004
-0.0004
-0.0004
-0.0004
-0.0004
-0.0004
-0.0004
-0.0004
-0.0004
-0.0004
-0.0004
-0.0004
-0.0004
-0.0004
-0.0004
-0.0005
-0.0005
-0.0005
-0.0005
-0.0005
-0.0005
-0.0005
-0.0005
-0.0005
-0.0005
-0.0005
-0.0005
-0.0005
-0.0005
-0.0005
-0.0005
-2e-15
7e-17
-2e-16
2e-17
3e-16
2e-15
-4e-16
-1e-15
-2e-15
-6e-06
-5e-06
-5e-06
-5e-06
-5e-06
-5e-06
-5e-06
-5e-06
-6e-06
-1e-05
-1e-05
-1e-05
-1e-05
-1e-05
-1e-05
-1e-05
-1e-05
-1e-05
-2e-05
-2e-05
-2e-05
-2e-05
-2e-05
-2e-05
-2e-05
-2e-05
-2e-05
-2e-05
-2e-05
-2e-05
-2e-05
-2e-05
-2e-05
-2e-05
-2e-05
-2e-05
-3e-05
-3e-05
-3e-05
-3e-05
-3e-05
-3e-05
-3e-05
-3e-05
-3e-05
-4e-05
-4e-05
-4e-05
-4e-05
-4e-05
-4e-05
-4e-05
-4e-05
-4e-05
-4e-05
-4e-05
-4e-05
-4e-05
-4e-05
-4e-05
-4e-05
-4e-05
-4e-05
-5e-05
-5e-05
-5e-05
-5e-05
-5e-05
-5e-05
-5e-05
-5e-05
-5e-05
-6e-05
-6e-05
-6e-05
-6e-05
-6e-05
-6e-05
-6e-05
-6e-05
-6e-05
-6e-05
-6e-05
-6e-05
-6e-05
-6e-05
-6e-05
-6e-05
-6e-05
-6e-05
-7e-05
-7e-05
-7e-05
-7e-05
-7e-05
-7e-05
-7e-05
-7e-05
-7e-05
-7e-05
-7e-05
-7e-05
-7e-05
-7e-05
-7e-05
-7e-05
-7e-05
-7e-05
-8e-05
-8e-05
-8e-05
-8e-05
-8e-05
-8e-05
-8e-05
-8e-05
-8e-05
-9e-05
-9e-05
-9e-05
-9e-05
-9e-05
-9e-05
-9e-05
-9e-05
-9e-05
-9e-05
-9e-05
-9e-05
-9e-05
-9e-05
-9e-05
-9e-05
-9e-05
-9e-05
-0.0001
-0.0001
-0.0001
-0.0001
-0.0001
-0.0001
-0.0001
-0.0001
-0.0001
-0.0001
-0.0001
-0.0001
-0.0001
-0.0001
-0.0001
-0.0001
-0.0001
-0.0001
-0.0001
-0.0001
-0.0001
-0.0001
-0.0001
-0.0001
-0.0001
-0.0001
-0.0001
-0.0001
-0.0001
-0.0001
-0.0001
-0.0001
-0.0001
-0.0001
-0.0001
-0.0001
-0.0001
-0.0001
-0.0001
-0.0001
-0.0001
-0.0001
-0.0001
-0.0001
-0.0001
-0.0001
-0.0001
-0.0001
-0.0001
-0.0001
-0.0001
-0.0001
-0.0001
-0.0001
-0.0001
-0.0001
-0.0001
-0.0001
-0.0001
-0.0001
-0.0001
-0.0001
-0.0001
-0.0001
-0.0001
-0.0001
-0.0001
-0.0001
-0.0001
-0.0001
-0.0001
-0.0001
-0.0001
-0.0001
-0.0001
-0.0001
-0.0001
-0.0001
-0.0001
-0.0001
-0.0001
-0.0002
-0.0002
-0.0002
-0.0002
-0.0002
-0.0002
-0.0002
-0.0002
-0.0002
-0.0002
-0.0002
-0.0002
-0.0002
-0.0002
-0.0002
-0.0002
-0.0002
-0.0002
-0.0002
-0.0002
-0.0002
-0.0002
-0.0002
-0.0002
-0.0002
-0.0002
-0.0002
-0.0002
-0.0002
-0.0002
-0.0002
-0.0002
-0.0002
-0.0002
-0.0002
-0.0002
-0.0002
-0.0002
-0.0002
-0.0002
-0.0002
-0.0002
-0.0002
-0.0002
-0.0002
-0.0002
-0.0002
-0.0002
-0.0002
-0.0002
-0.0002
-0.0002
-0.0002
-0.0002
-0.0002
-0.0002
-0.0002
-0.0002
-0.0002
-0.0002
-0.0002
-0.0002
-0.0002
-0.0002
-0.0002
-0.0002
-0.0002
-0.0002
-0.0002
-0.0002
-0.0002
-0.0002
-0.0002
-0.0002
-0.0002
-0.0002
-0.0002
-0.0002
-0.0002
-0.0002
-0.0002
-0.0002
-0.0002
-0.0002
-0.0002
-0.0002
-0.0002
-0.0002
-0.0002
-0.0002
-0.0002
-0.0002
-0.0002
-0.0002
-0.0002
-0.0002
-0.0002
-0.0002
-0.0002
-0.0002
-0.0002
-0.0002
-0.0002
-0.0002
-0.0002
-0.0002
-0.0002
-0.0002
-0.0002
-0.0002
-0.0002
-0.0002
-0.0002
-0.0002
-0.0002
-0.0002
-0.0002
-0.0002
-0.0002
-0.0002
-0.0002
-0.0002
-0.0002
-0.0002
-0.0002
-0.0002
-0.0002
-0.0002
-0.0002
-0.0002
-0.0002
-0.0002
-0.0002
-0.0002
-0.0002
-0.0002
-0.0002
-0.0002
-0.0002
-0.0002
-0.0002
-0.0002
-0.0002
-0.0002
-0.0003
-0.0003
-0.0003
-0.0003
-0.0003
-0.0003
-0.0003
-0.0003
-0.0003
-0.0003
-0.0003
-0.0003
-0.0003
-0.0003
-0.0003
-0.0003
-0.0003
-0.0003
-0.0003
-0.0003
-0.0003
-0.0003
-0.0003
-0.0003
-0.0003
-0.0003
-0.0003
-0.0003
-0.0003
-0.0003
-0.0003
-0.0003
-0.0003
-0.0003
-0.0003
-0.0003
-0.0003
-0.0003
-0.0003
-0.0003
-0.0003
-0.0003
-0.0003
-0.0003
-0.0003
-0.0003
-0.0003
-0.0003
-0.0003
-0.0003
-0.0003
-0.0003
-0.0003
-0.0003
-0.0003
-0.0003
-0.0003
-0.0003
-0.0003
-0.0003
-0.0003
-0.0003
-0.0003
-0.0003
-0.0003
-0.0003
-0.0003
-0.0003
-0.0003
-0.0003
-0.0003
-0.0003
-0.0003
-0.0003
-0.0003
-0.0003
-0.0003
-0.0003
-0.0003
-0.0003
-0.0003
-0.0003
-0.0003
-0.0003
-0.0003
-0.0003
-0.0003
-0.0003
-0.0003
-0.0003
-0.0003
-0.0003
-0.0003
-0.0003
-0.0003
-0.0003
-0.0003
-0.0003
-0.0003
-0.0003
-0.0003
-0.0003
-0.0003
-0.0003
-0.0003
-0.0003
-0.0003
-0.0003
-0.0003
-0.0003
-0.0003
-0.0003
-0.0003
-0.0003
-0.0003
-0.0003
-0.0003
-0.0003
-0.0003
-0.0003
-0.0003
-0.0003
-0.0003
-0.0003
-0.0003
-0.0003
-0.0003
-0.0003
-0.0003
-0.0003
-0.0003
-0.0003
-0.0003
-0.0003
-0.0003
-0.0003
-0.0003
-0.0003
-0.0003
-0.0003
-0.0003
-0.0003
-0.0003
-0.0003
-0.0004
-0.0004
-0.0004
-0.0004
-0.0004
-0.0004
-0.0004
-0.0004
-0.0004
-0.0004
-0.0004
-0.0004
-0.0004
-0.0004
-0.0004
-0.0004
-0.0004
-0.0004
-0.0004
-0.0004
-0.0004
-0.0004
-0.0004
-0.0004
-0.0004
-0.0004
-0.0004
-0.0004
-0.0004
-0.0004
-0.0004
-0.0004
-0.0004
-0.0004
-0.0004
-0.0004
-0.0004
-0.0004
-0.0004
-0.0004
-0.0004
-0.0004
-0.0004
-0.0004
-0.0004
-0.0004
-0.0004
-0.0004
-0.0004
-0.0004
-0.0004
-0.0004
-0.0004
-0.0004
-0.0004
-0.0004
-0.0004
-0.0004
-0.0004
-0.0004
-0.0004
-0.0004
-0.0004
-0.0004
-0.0004
-0.0004
-0.0004
-0.0004
-0.0004
-0.0004
-0.0004
-0.0004
-0.0004
-0.0004
-0.0004
-0.0004
-0.0004
-0.0004
-0.0004
-0.0004
-0.0004
-0.0004
-0.0004
-0.0004
-0.0004
-0.0004
-0.0004
-0.0004
-0.0004
-0.0004
-0.0004
-0.0004
-0.0004
-0.0004
-0.0004
-0.0004
-0.0004
-0.0004
-0.0004
-0.0004
-0.0004
-0.0004
-0.0004
-0.0004
-0.0004
-0.0004
-0.0004
-0.0004
-0.0004
-0.0004
-0.0004
-0.0004
-0.0004
-0.0004
-0.0004
-0.0004
-0.0004
-0.0004
-0.0004
-0.0004
-0.0004
-0.0004
-0.0004
-0.0004
-0.0004
-0.0004
-0.0004
-0.0004
-0.0004
-0.0004
-0.0004
-0.0004
-0.0004
-0.0004
-0.0004
-0.0004
-0.0004
-0.0004
-0.0004
-0.0004
-0.0004
-0.0004
-0.0004
-0.0004
-0.0005
-0.0005
-0.0005
-0.0005
-0.0005
-0.0005
-0.0005
-0.0005
-0.0005
-0.0005
-0.0005
-0.0005
-0.0005
-0.0005
-0.0005
-0.0005
-0.0005
-0.0005
-0.0005
-0.0005
-0.0005
-0.0005
-0.0005
-0.0005
-0.0005
-0.0005
-0.0005
-0.0005
-0.0005
-0.0005
-0.0005
-0.0005
-0.0005
-0.0005
-0.0005
-0.0005
-0.0005
-0.0005
-0.0005
-0.0005
-0.0005
-0.0005
-0.0005
-0.0005
-0.0005
-0.0005
-0.0005
-0.0005
-0.0005
-0.0005
-0.0005
-0.0005
-0.0005
-0.0005
-0.0005
-0.0005
-0.0005
-0.0005
-0.0005
-0.0005
-0.0005
-0.0005
-0.0005
SCALARS strain_1 float
LOOKUP_TABLE default
-0.000348
-0.554143
-0.545767
-0.537347
-0.528888
-0.520391
-0.511858
-0.503290
-0.494689
-0.486060
-0.477401
-0.468718
-0.460012
-0.451286
-0.442540
-0.433781
-0.425009
-0.416228
-0.407440
-0.398648
-0.389857
-0.381066
-0.372281
-0.363510
-0.354749
-0.346001
-0.337276
-0.328576
-0.319902
-0.311257
-0.302649
-0.294078
-0.285552
-0.277070
-0.268641
-0.260265
-0.251951
-0.243696
-0.235511
-0.227398
-0.219360
-0.211402
-0.203526
-0.195742
-0.188050
-0.180455
-0.172959
-0.165571
-0.158293
-0.151128
-0.144078
-0.137153
-0.130352
-0.123680
-0.117139
-0.110737
-0.104475
-0.098356
-0.092384
-0.086560
-0.080890
-0.075375
-0.070019
-0.064822
-0.059787
-0.054922
-0.050221
-0.045688
-0.041323
-0.037132
-0.033115
-0.029271
-0.025598
-0.022101
-0.018776
-0.015629
-0.012652
-0.009851
-0.007220
-0.004761
-0.002469
-0.554640
-0.000013
-0.002143
-0.004438
-0.006904
-0.009542
-0.012351
-0.015334
-0.018489
-0.021824
-0.025331
-0.029013
-0.032866
-0.036894
-0.041094
-0.045467
-0.050011
-0.054722
-0.059602
-0.064645
-0.069854
-0.075221
-0.080749
-0.086431
-0.092267
-0.098250
-0.104383
-0.110657
-0.117072
-0.123625
-0.130310
-0.137123
-0.144061
-0.151124
-0.158301
-0.165596
-0.172996
-0.180505
-0.188112
-0.195818
-0.203616
-0.211502
-0.219473
-0.227524
-0.235650
-0.243849
-0.252113
-0.260442
-0.268831
-0.277270
-0.285763
-0.294303
-0.302885
-0.311505
-0.320161
-0.328846
-0.337558
-0.346295
-0.355050
-0.363821
-0.372607
-0.381401
-0.390199
-0.399003
-0.407804
-0.416601
-0.425392
-0.434172
-0.442942
-0.451693
-0.460428
-0.469143
-0.477834
-0.486501
-0.495138
-0.503744
-0.512320
-0.520861
-0.529364
-0.537830
-0.546254
-0.554592
-0.554544
-0.554498
-0.554448
-0.554400
-0.554350
-0.554298
-0.554247
-0.554195
-0.000280
-0.000223
-0.000169
-0.000127
-0.000092
-0.000060
-0.000038
-0.000023
-0.000013
-0.002141
-0.002149
-0.002162
-0.002185
-0.002214
-0.002250
-0.002296
-0.002345
-0.002405
-0.004440
-0.004444
-0.004459
-0.004478
-0.004508
-0.004544
-0.004585
-0.004636
-0.004696
-0.006903
-0.006908
-0.006921
-0.006943
-0.006970
-0.007005
-0.007046
-0.007098
-0.007156
-0.009540
-0.009544
-0.009556
-0.009575
-0.009604
-0.009639
-0.009682
-0.009728
-0.009787
-0.012349
-0.012353
-0.012364
-0.012383
-0.012409
-0.012444
-0.012485
-0.012532
-0.012589
-0.015330
-0.015334
-0.015345
-0.015362
-0.015391
-0.015421
-0.015462
-0.015510
-0.015564
-0.018488
-0.018490
-0.018501
-0.018517
-0.018544
-0.018575
-0.018613
-0.018660
-0.018713
-0.021818
-0.021819
-0.021828
-0.021845
-0.021869
-0.021899
-0.021939
-0.021986
-0.022040
-0.025323
-0.025322
-0.025332
-0.025347
-0.025370
-0.025401
-0.025437
-0.025483
-0.025538
-0.029002
-0.029003
-0.029009
-0.029024
-0.029046
-0.029075
-0.029112
-0.029157
-0.029210
-0.032858
-0.032855
-0.032862
-0.032876
-0.032897
-0.032927
-0.032961
-0.033005
-0.033056
-0.036884
-0.036884
-0.036888
-0.036900
-0.036921
-0.036949
-0.036983
-0.037026
-0.037077
-0.041085
-0.041084
-0.041087
-0.041099
-0.041116
-0.041145
-0.041178
-0.041219
-0.041268
-0.045455
-0.045452
-0.045455
-0.045466
-0.045484
-0.045511
-0.045545
-0.045585
-0.045632
-0.049998
-0.049994
-0.049998
-0.050006
-0.050024
-0.050048
-0.050080
-0.050118
-0.050166
-0.054709
-0.054705
-0.054707
-0.054716
-0.054730
-0.054755
-0.054786
-0.054822
-0.054869
-0.059588
-0.059581
-0.059582
-0.059589
-0.059606
-0.059627
-0.059658
-0.059695
-0.059737
-0.064631
-0.064623
-0.064625
-0.064631
-0.064645
-0.064667
-0.064694
-0.064730
-0.064773
-0.069837
-0.069830
-0.069829
-0.069835
-0.069847
-0.069866
-0.069893
-0.069929
-0.069971
-0.075206
-0.075196
-0.075194
-0.075200
-0.075211
-0.075231
-0.075257
-0.075289
-0.075328
-0.080730
-0.080723
-0.080718
-0.080722
-0.080732
-0.080750
-0.080773
-0.080804
-0.080844
-0.086414
-0.086403
-0.086398
-0.086399
-0.086410
-0.086427
-0.086448
-0.086477
-0.086516
-0.092247
-0.092236
-0.092228
-0.092231
-0.092240
-0.092255
-0.092275
-0.092304
-0.092342
-0.098230
-0.098220
-0.098212
-0.098213
-0.098220
-0.098234
-0.098253
-0.098281
-0.098315
-0.104363
-0.104349
-0.104342
-0.104340
-0.104346
-0.104360
-0.104377
-0.104403
-0.104436
-0.110636
-0.110620
-0.110613
-0.110611
-0.110617
-0.110627
-0.110645
-0.110670
-0.110700
-0.117051
-0.117035
-0.117026
-0.117023
-0.117027
-0.117037
-0.117052
-0.117074
-0.117106
-0.123603
-0.123586
-0.123575
-0.123572
-0.123573
-0.123582
-0.123597
-0.123618
-0.123645
-0.130287
-0.130267
-0.130258
-0.130250
-0.130253
-0.130261
-0.130274
-0.130292
-0.130319
-0.137100
-0.137081
-0.137067
-0.137061
-0.137063
-0.137068
-0.137079
-0.137099
-0.137123
-0.144038
-0.144020
-0.144006
-0.143999
-0.143997
-0.144001
-0.144014
-0.144029
-0.144052
-0.151099
-0.151078
-0.151064
-0.151055
-0.151052
-0.151055
-0.151066
-0.151079
-0.151102
-0.158275
-0.158255
-0.158241
-0.158231
-0.158228
-0.158229
-0.158235
-0.158250
-0.158267
-0.165568
-0.165547
-0.165529
-0.165518
-0.165514
-0.165514
-0.165519
-0.165533
-0.165550
-0.172969
-0.172947
-0.172929
-0.172918
-0.172911
-0.172910
-0.172914
-0.172925
-0.172940
-0.180474
-0.180452
-0.180433
-0.180421
-0.180413
-0.180411
-0.180414
-0.180423
-0.180435
-0.188083
-0.188058
-0.188041
-0.188024
-0.188017
-0.188013
-0.188015
-0.188021
-0.188032
-0.195788
-0.195761
-0.195743
-0.195727
-0.195717
-0.195712
-0.195711
-0.195717
-0.195725
-0.203586
-0.203558
-0.203537
-0.203523
-0.203510
-0.203504
-0.203502
-0.203507
-0.203515
-0.211470
-0.211444
-0.211420
-0.211405
-0.211392
-0.211385
-0.211382
-0.211383
-0.211390
-0.219441
-0.219413
-0.219390
-0.219372
-0.219358
-0.219350
-0.219344
-0.219345
-0.219348
-0.227491
-0.227463
-0.227439
-0.227419
-0.227404
-0.227394
-0.227389
-0.227386
-0.227390
-0.235616
-0.235588
-0.235563
-0.235544
-0.235526
-0.235516
-0.235508
-0.235504
-0.235506
-0.243814
-0.243784
-0.243757
-0.243738
-0.243721
-0.243708
-0.243697
-0.243694
-0.243693
-0.252078
-0.252049
-0.252023
-0.251999
-0.251982
-0.251968
-0.251957
-0.251951
-0.251947
-0.260407
-0.260377
-0.260349
-0.260325
-0.260307
-0.260290
-0.260278
-0.260269
-0.260265
-0.268794
-0.268763
-0.268732
-0.268710
-0.268689
-0.268671
-0.268661
-0.268649
-0.268643
-0.277236
-0.277202
-0.277173
-0.277149
-0.277126
-0.277109
-0.277093
-0.277082
-0.277074
-0.285727
-0.285694
-0.285666
-0.285637
-0.285615
-0.285594
-0.285578
-0.285566
-0.285558
-0.294266
-0.294233
-0.294202
-0.294174
-0.294151
-0.294130
-0.294112
-0.294096
-0.294085
-0.302846
-0.302813
-0.302781
-0.302752
-0.302727
-0.302705
-0.302685
-0.302671
-0.302659
-0.311466
-0.311431
-0.311397
-0.311370
-0.311344
-0.311321
-0.311299
-0.311282
-0.311270
-0.320123
-0.320086
-0.320053
-0.320022
-0.319995
-0.319971
-0.319948
-0.319930
-0.319913
-0.328807
-0.328769
-0.328737
-0.328704
-0.328677
-0.328651
-0.328628
-0.328608
-0.328591
-0.337518
-0.337482
-0.337448
-0.337415
-0.337387
-0.337358
-0.337334
-0.337313
-0.337294
-0.346255
-0.346216
-0.346182
-0.346151
-0.346118
-0.346090
-0.346066
-0.346042
-0.346021
-0.355010
-0.354971
-0.354935
-0.354903
-0.354871
-0.354841
-0.354816
-0.354789
-0.354768
-0.363781
-0.363742
-0.363707
-0.363672
-0.363639
-0.363607
-0.363583
-0.363556
-0.363529
-0.372566
-0.372526
-0.372491
-0.372454
-0.372420
-0.372390
-0.372358
-0.372331
-0.372308
-0.381359
-0.381318
-0.381282
-0.381245
-0.381212