# vtk DataFile Version 2.0
Generated volume Mesh
ASCII
DATASET UNSTRUCTURED_GRID
POINTS 891 float
0.005000 0.100000 0.000000
0.005000 0.000000 0.000000
0.005000 0.001250 0.000000
0.005000 0.002500 0.000000
0.005000 0.003750 0.000000
0.005000 0.005000 0.000000
0.005000 0.006250 0.000000
0.005000 0.007500 0.000000
0.005000 0.008750 0.000000
0.005000 0.010000 0.000000
0.005000 0.011250 0.000000
0.005000 0.012500 0.000000
0.005000 0.013750 0.000000
0.005000 0.015000 0.000000
0.005000 0.016250 0.000000
0.005000 0.017500 0.000000
0.005000 0.018750 0.000000
0.005000 0.020000 0.000000
0.005000 0.021250 0.000000
0.005000 0.022500 0.000000
0.005000 0.023750 0.000000
0.005000 0.025000 0.000000
0.005000 0.026250 0.000000
0.005000 0.027500 0.000000
0.005000 0.028750 0.000000
0.005000 0.030000 0.000000
0.005000 0.031250 0.000000
0.005000 0.032500 0.000000
0.005000 0.033750 0.000000
0.005000 0.035000 0.000000
0.005000 0.036250 0.000000
0.005000 0.037500 0.000000
0.005000 0.038750 0.000000
0.005000 0.040000 0.000000
0.005000 0.041250 0.000000
0.005000 0.042500 0.000000
0.005000 0.043750 0.000000
0.005000 0.045000 0.000000
0.005000 0.046250 0.000000
0.005000 0.047500 0.000000
0.005000 0.048750 0.000000
0.005000 0.050000 0.000000
0.005000 0.051250 0.000000
0.005000 0.052500 0.000000
0.005000 0.053750 0.000000
0.005000 0.055000 0.000000
0.005000 0.056250 0.000000
0.005000 0.057500 0.000000
0.005000 0.058750 0.000000
0.005000 0.060000 0.000000
0.005000 0.061250 0.000000
0.005000 0.062500 0.000000
0.005000 0.063750 0.000000
0.005000 0.065000 0.000000
0.005000 0.066250 0.000000
0.005000 0.067500 0.000000
0.005000 0.068750 0.000000
0.005000 0.070000 0.000000
0.005000 0.071250 0.000000
0.005000 0.072500 0.000000
0.005000 0.073750 0.000000
0.005000 0.075000 0.000000
0.005000 0.076250 0.000000
0.005000 0.077500 0.000000
0.005000 0.078750 0.000000
0.005000 0.080000 0.000000
0.005000 0.081250 0.000000
0.005000 0.082500 0.000000
0.005000 0.083750 0.000000
0.005000 0.085000 0.000000
0.005000 0.086250 0.000000
0.005000 0.087500 0.000000
0.005000 0.088750 0.000000
0.005000 0.090000 0.000000
0.005000 0.091250 0.000000
0.005000 0.092500 0.000000
0.005000 0.093750 0.000000
0.005000 0.095000 0.000000
0.005000 0.096250 0.000000
0.005000 0.097500 0.000000
0.005000 0.098750 0.000000
0.000000 0.000000 0.000000
0.000000 0.100000 0.000000
0.000000 0.098750 0.000000
0.000000 0.097500 0.000000
0.000000 0.096250 0.000000
0.000000 0.095000 0.000000
0.000000 0.093750 0.000000
0.000000 0.092500 0.000000
0.000000 0.091250 0.000000
0.000000 0.090000 0.000000
0.000000 0.088750 0.000000
0.000000 0.087500 0.000000
0.000000 0.086250 0.000000
0.000000 0.085000 0.000000
0.000000 0.083750 0.000000
0.000000 0.082500 0.000000
0.000000 0.081250 0.000000
0.000000 0.080000 0.000000
0.000000 0.078750 0.000000
0.000000 0.077500 0.000000
0.000000 0.076250 0.000000
0.000000 0.075000 0.000000
0.000000 0.073750 0.000000
0.000000 0.072500 0.000000
0.000000 0.071250 0.000000
0.000000 0.070000 0.000000
0.000000 0.068750 0.000000
0.000000 0.067500 0.000000
0.000000 0.066250 0.000000
0.000000 0.065000 0.000000
0.000000 0.063750 0.000000
0.000000 0.062500 0.000000
0.000000 0.061250 0.000000
0.000000 0.060000 0.000000
0.000000 0.058750 0.000000
0.000000 0.057500 0.000000
0.000000 0.056250 0.000000
0.000000 0.055000 0.000000
0.000000 0.053750 0.000000
0.000000 0.052500 0.000000
0.000000 0.051250 0.000000
0.000000 0.050000 0.000000
0.000000 0.048750 0.000000
0.000000 0.047500 0.000000
0.000000 0.046250 0.000000
0.000000 0.045000 0.000000
0.000000 0.043750 0.000000
0.000000 0.042500 0.000000
0.000000 0.041250 0.000000
0.000000 0.040000 0.000000
0.000000 0.038750 0.000000
0.000000 0.037500 0.000000
0.000000 0.036250 0.000000
0.000000 0.035000 0.000000
0.000000 0.033750 0.000000
0.000000 0.032500 0.000000
0.000000 0.031250 0.000000
0.000000 0.030000 0.000000
0.000000 0.028750 0.000000
0.000000 0.027500 0.000000
0.000000 0.026250 0.000000
0.000000 0.025000 0.000000
0.000000 0.023750 0.000000
0.000000 0.022500 0.000000
0.000000 0.021250 0.000000
0.000000 0.020000 0.000000
0.000000 0.018750 0.000000
0.000000 0.017500 0.000000
0.000000 0.016250 0.000000
0.000000 0.015000 0.000000
0.000000 0.013750 0.000000
0.000000 0.012500 0.000000
0.000000 0.011250 0.000000
0.000000 0.010000 0.000000
0.000000 0.008750 0.000000
0.000000 0.007500 0.000000
0.000000 0.006250 0.000000
0.000000 0.005000 0.000000
0.000000 0.003750 0.000000
0.000000 0.002500 0.000000
0.000000 0.001250 0.000000
0.000500 0.000000 0.000000
0.001000 0.000000 0.000000
0.001500 0.000000 0.000000
0.002000 0.000000 0.000000
0.002500 0.000000 0.000000
0.003000 0.000000 0.000000
0.003500 0.000000 0.000000
0.004000 0.000000 0.000000
0.004500 0.000000 0.000000
0.004500 0.100000 0.000000
0.004000 0.100000 0.000000
0.003500 0.100000 0.000000
0.003000 0.100000 0.000000
0.002500 0.100000 0.000000
0.002000 0.100000 0.000000
0.001500 0.100000 0.000000
0.001000 0.100000 0.000000
0.000500 0.100000 0.000000
0.000500 0.098750 0.000000
0.001000 0.098750 0.000000
0.001500 0.098750 0.000000
0.002000 0.098750 0.000000
0.002500 0.098750 0.000000
0.003000 0.098750 0.000000
0.003500 0.098750 0.000000
0.004000 0.098750 0.000000
0.004500 0.098750 0.000000
0.000500 0.097500 0.000000
0.001000 0.097500 0.000000
0.001500 0.097500 0.000000
0.002000 0.097500 0.000000
0.002500 0.097500 0.000000
0.003000 0.097500 0.000000
0.003500 0.097500 0.000000
0.004000 0.097500 0.000000
0.004500 0.097500 0.000000
0.000500 0.096250 0.000000
0.001000 0.096250 0.000000
0.001500 0.096250 0.000000
0.002000 0.096250 0.000000
0.002500 0.096250 0.000000
0.003000 0.096250 0.000000
0.003500 0.096250 0.000000
0.004000 0.096250 0.000000
0.004500 0.096250 0.000000
0.000500 0.095000 0.000000
0.001000 0.095000 0.000000
0.001500 0.095000 0.000000
0.002000 0.095000 0.000000
0.002500 0.095000 0.000000
0.003000 0.095000 0.000000
0.003500 0.095000 0.000000
0.004000 0.095000 0.000000
0.004500 0.095000 0.000000
0.000500 0.093750 0.000000
0.001000 0.093750 0.000000
0.001500 0.093750 0.000000
0.002000 0.093750 0.000000
0.002500 0.093750 0.000000
0.003000 0.093750 0.000000
0.003500 0.093750 0.000000
0.004000 0.093750 0.000000
0.004500 0.093750 0.000000
0.000500 0.092500 0.000000
0.001000 0.092500 0.000000
0.001500 0.092500 0.000000
0.002000 0.092500 0.000000
0.002500 0.092500 0.000000
0.003000 0.092500 0.000000
0.003500 0.092500 0.000000
0.004000 0.092500 0.000000
0.004500 0.092500 0.000000
0.000500 0.091250 0.000000
0.001000 0.091250 0.000000
0.001500 0.091250 0.000000
0.002000 0.091250 0.000000
0.002500 0.091250 0.000000
0.003000 0.091250 0.000000
0.003500 0.091250 0.000000
0.004000 0.091250 0.000000
0.004500 0.091250 0.000000
0.000500 0.090000 0.000000
0.001000 0.090000 0.000000
0.001500 0.090000 0.000000
0.002000 0.090000 0.000000
0.002500 0.090000 0.000000
0.003000 0.090000 0.000000
0.003500 0.090000 0.000000
0.004000 0.090000 0.000000
0.004500 0.090000 0.000000
0.000500 0.088750 0.000000
0.001000 0.088750 0.000000
0.001500 0.088750 0.000000
0.002000 0.088750 0.000000
0.002500 0.088750 0.000000
0.003000 0.088750 0.000000
0.003500 0.088750 0.000000
0.004000 0.088750 0.000000
0.004500 0.088750 0.000000
0.000500 0.087500 0.000000
0.001000 0.087500 0.000000
0.001500 0.087500 0.000000
0.002000 0.087500 0.000000
0.002500 0.087500 0.000000
0.003000 0.087500 0.000000
0.003500 0.087500 0.000000
0.004000 0.087500 0.000000
0.004500 0.087500 0.000000
0.000500 0.086250 0.000000
0.001000 0.086250 0.000000
0.001500 0.086250 0.000000
0.002000 0.086250 0.000000
0.002500 0.086250 0.000000
0.003000 0.086250 0.000000
0.003500 0.086250 0.000000
0.004000 0.086250 0.000000
0.004500 0.086250 0.000000
0.000500 0.085000 0.000000
0.001000 0.085000 0.000000
0.001500 0.085000 0.000000
0.002000 0.085000 0.000000
0.002500 0.085000 0.000000
0.003000 0.085000 0.000000
0.003500 0.085000 0.000000
0.004000 0.085000 0.000000
0.004500 0.085000 0.000000
0.000500 0.083750 0.000000
0.001000 0.083750 0.000000
0.001500 0.083750 0.000000
0.002000 0.083750 0.000000
0.002500 0.083750 0.000000
0.003000 0.083750 0.000000
0.003500 0.083750 0.000000
0.004000 0.083750 0.000000
0.004500 0.083750 0.000000
0.000500 0.082500 0.000000
0.001000 0.082500 0.000000
0.001500 0.082500 0.000000
0.002000 0.082500 0.000000
0.002500 0.082500 0.000000
0.003000 0.082500 0.000000
0.003500 0.082500 0.000000
0.004000 0.082500 0.000000
0.004500 0.082500 0.000000
0.000500 0.081250 0.000000
0.001000 0.081250 0.000000
0.001500 0.081250 0.000000
0.002000 0.081250 0.000000
0.002500 0.081250 0.000000
0.003000 0.081250 0.000000
0.003500 0.081250 0.000000
0.004000 0.081250 0.000000
0.004500 0.081250 0.000000
0.000500 0.080000 0.000000
0.001000 0.080000 0.000000
0.001500 0.080000 0.000000
0.002000 0.080000 0.000000
0.002500 0.080000 0.000000
0.003000 0.080000 0.000000
0.003500 0.080000 0.000000
0.004000 0.080000 0.000000
0.004500 0.080000 0.000000
0.000500 0.078750 0.000000
0.001000 0.078750 0.000000
0.001500 0.078750 0.000000
0.002000 0.078750 0.000000
0.002500 0.078750 0.000000
0.003000 0.078750 0.000000
0.003500 0.078750 0.000000
0.004000 0.078750 0.000000
0.004500 0.078750 0.000000
0.000500 0.077500 0.000000
0.001000 0.077500 0.000000
0.001500 0.077500 0.000000
0.002000 0.077500 0.000000
0.002500 0.077500 0.000000
0.003000 0.077500 0.000000
0.003500 0.077500 0.000000
0.004000 0.077500 0.000000
0.004500 0.077500 0.000000
0.000500 0.076250 0.000000
0.001000 0.076250 0.000000
0.001500 0.076250 0.000000
0.002000 0.076250 0.000000
0.002500 0.076250 0.000000
0.003000 0.076250 0.000000
0.003500 0.076250 0.000000
0.004000 0.076250 0.000000
0.004500 0.076250 0.000000
0.000500 0.075000 0.000000
0.001000 0.075000 0.000000
0.001500 0.075000 0.000000
0.002000 0.075000 0.000000
0.002500 0.075000 0.000000
0.003000 0.075000 0.000000
0.003500 0.075000 0.000000
0.004000 0.075000 0.000000
0.004500 0.075000 0.000000
0.000500 0.073750 0.000000
0.001000 0.073750 0.000000
0.001500 0.073750 0.000000
0.002000 0.073750 0.000000
0.002500 0.073750 0.000000
0.003000 0.073750 0.000000
[...]
POINT_DATA 891
SCALARS u1 float
LOOKUP_TABLE default
-4e-16
-6e-07
-6e-07
-6e-07
-6e-07
-6e-07
-6e-07
-6e-07
-6e-07
-6e-07
-6e-07
-6e-07
-6e-07
-6e-07
-6e-07
-6e-07
-6e-07
-6e-07
-6e-07
-6e-07
-6e-07
-6e-07
-6e-07
-6e-07
-6e-07
-6e-07
-6e-07
-6e-07
-6e-07
-6e-07
-6e-07
-6e-07
-6e-07
-6e-07
-6e-07
-6e-07
-6e-07
-6e-07
-6e-07
-6e-07
-6e-07
-6e-07
-6e-07
-6e-07
-6e-07
-6e-07
-6e-07
-6e-07
-6e-07
-6e-07
-6e-07
-6e-07
-6e-07
-6e-07
-6e-07
-6e-07
-6e-07
-6e-07
-6e-07
-6e-07
-6e-07
-6e-07
-6e-07
-6e-07
-6e-07
-6e-07
-6e-07
-6e-07
-6e-07
-6e-07
-6e-07
-6e-07
-6e-07
-6e-07
-6e-07
-6e-07
-6e-07
-6e-07
-6e-07
-6e-07
-5e-07
6e-07
7e-18
5e-07
6e-07
6e-07
6e-07
6e-07
6e-07
6e-07
6e-07
6e-07
6e-07
6e-07
6e-07
6e-07
6e-07
6e-07
6e-07
6e-07
6e-07
6e-07
6e-07
6e-07
6e-07
6e-07
6e-07
6e-07
6e-07
6e-07
6e-07
6e-07
6e-07
6e-07
6e-07
6e-07
6e-07
6e-07
6e-07
6e-07
6e-07
6e-07
6e-07
6e-07
6e-07
6e-07
6e-07
6e-07
6e-07
6e-07
6e-07
6e-07
6e-07
6e-07
6e-07
6e-07
6e-07
6e-07
6e-07
6e-07
6e-07
6e-07
6e-07
6e-07
6e-07
6e-07
6e-07
6e-07
6e-07
6e-07
6e-07
6e-07
6e-07
6e-07
6e-07
6e-07
6e-07
6e-07
6e-07
6e-07
6e-07
6e-07
5e-07
4e-07
2e-07
1e-07
3e-16
-1e-07
-2e-07
-4e-07
-5e-07
-6e-16
8e-17
4e-16
5e-16
-6e-16
-2e-16
1e-15
9e-17
1e-16
3e-07
2e-07
1e-07
7e-08
1e-14
-7e-08
-1e-07
-2e-07
-3e-07
5e-07
3e-07
2e-07
1e-07
1e-14
-1e-07
-2e-07
-3e-07
-5e-07
5e-07
4e-07
2e-07
1e-07
9e-15
-1e-07
-2e-07
-4e-07
-5e-07
5e-07
4e-07
2e-07
1e-07
8e-15
-1e-07
-2e-07
-4e-07
-5e-07
5e-07
4e-07
2e-07
1e-07
5e-15
-1e-07
-2e-07
-4e-07
-5e-07
5e-07
4e-07
2e-07
1e-07
2e-15
-1e-07
-2e-07
-4e-07
-5e-07
5e-07
4e-07
2e-07
1e-07
-7e-16
-1e-07
-2e-07
-4e-07
-5e-07
5e-07
4e-07
2e-07
1e-07
-3e-15
-1e-07
-2e-07
-4e-07
-5e-07
5e-07
4e-07
2e-07
1e-07
-4e-15
-1e-07
-2e-07
-4e-07
-5e-07
5e-07
4e-07
2e-07
1e-07
-4e-15
-1e-07
-2e-07
-4e-07
-5e-07
5e-07
4e-07
2e-07
1e-07
-4e-15
-1e-07
-2e-07
-4e-07
-5e-07
5e-07
4e-07
2e-07
1e-07
-4e-15
-1e-07
-2e-07
-4e-07
-5e-07
5e-07
4e-07
2e-07
1e-07
-3e-15
-1e-07
-2e-07
-4e-07
-5e-07
5e-07
4e-07
2e-07
1e-07
-3e-15
-1e-07
-2e-07
-4e-07
-5e-07
5e-07
4e-07
2e-07
1e-07
-2e-15
-1e-07
-2e-07
-4e-07
-5e-07
5e-07
4e-07
2e-07
1e-07
-2e-15
-1e-07
-2e-07
-4e-07
-5e-07
5e-07
4e-07
2e-07
1e-07
-1e-15
-1e-07
-2e-07
-4e-07
-5e-07
5e-07
4e-07
2e-07
1e-07
-8e-16
-1e-07
-2e-07
-4e-07
-5e-07
5e-07
4e-07
2e-07
1e-07
-5e-16
-1e-07
-2e-07
-4e-07
-5e-07
5e-07
4e-07
2e-07
1e-07
-3e-16
-1e-07
-2e-07
-4e-07
-5e-07
5e-07
4e-07
2e-07
1e-07
-2e-16
-1e-07
-2e-07
-4e-07
-5e-07
5e-07
4e-07
2e-07
1e-07
-3e-17
-1e-07
-2e-07
-4e-07
-5e-07
5e-07
4e-07
2e-07
1e-07
6e-17
-1e-07
-2e-07
-4e-07
-5e-07
5e-07
4e-07
2e-07
1e-07
1e-16
-1e-07
-2e-07
-4e-07
-5e-07
5e-07
4e-07
2e-07
1e-07
2e-16
-1e-07
-2e-07
-4e-07
-5e-07
5e-07
4e-07
2e-07
1e-07
2e-16
-1e-07
-2e-07
-4e-07
-5e-07
5e-07
4e-07
2e-07
1e-07
2e-16
-1e-07
-2e-07
-4e-07
-5e-07
5e-07
4e-07
2e-07
1e-07
2e-16
-1e-07
-2e-07
-4e-07
-5e-07
5e-07
4e-07
2e-07
1e-07
3e-16
-1e-07
-2e-07
-4e-07
-5e-07
5e-07
4e-07
2e-07
1e-07
3e-16
-1e-07
-2e-07
-4e-07
-5e-07
5e-07
4e-07
2e-07
1e-07
3e-16
-1e-07
-2e-07
-4e-07
-5e-07
5e-07
4e-07
2e-07
1e-07
3e-16
-1e-07
-2e-07
-4e-07
-5e-07
5e-07
4e-07
2e-07
1e-07
3e-16
-1e-07
-2e-07
-4e-07
-5e-07
5e-07
4e-07
2e-07
1e-07
3e-16
-1e-07
-2e-07
-4e-07
-5e-07
5e-07
4e-07
2e-07
1e-07
3e-16
-1e-07
-2e-07
-4e-07
-5e-07
5e-07
4e-07
2e-07
1e-07
3e-16
-1e-07
-2e-07
-4e-07
-5e-07
5e-07
4e-07
2e-07
1e-07
3e-16
-1e-07
-2e-07
-4e-07
-5e-07
5e-07
4e-07
2e-07
1e-07
3e-16
-1e-07
-2e-07
-4e-07
-5e-07
5e-07
4e-07
2e-07
1e-07
3e-16
-1e-07
-2e-07
-4e-07
-5e-07
5e-07
4e-07
2e-07
1e-07
3e-16
-1e-07
-2e-07
-4e-07
-5e-07
5e-07
4e-07
2e-07
1e-07
3e-16
-1e-07
-2e-07
-4e-07
-5e-07
5e-07
4e-07
2e-07
1e-07
3e-16
-1e-07
-2e-07
-4e-07
-5e-07
5e-07
4e-07
2e-07
1e-07
3e-16
-1e-07
-2e-07
-4e-07
-5e-07
5e-07
4e-07
2e-07
1e-07
3e-16
-1e-07
-2e-07
-4e-07
-5e-07
5e-07
4e-07
2e-07
1e-07
3e-16
-1e-07
-2e-07
-4e-07
-5e-07
5e-07
4e-07
2e-07
1e-07
3e-16
-1e-07
-2e-07
-4e-07
-5e-07
5e-07
4e-07
2e-07
1e-07
3e-16
-1e-07
-2e-07
-4e-07
-5e-07
5e-07
4e-07
2e-07
1e-07
3e-16
-1e-07
-2e-07
-4e-07
-5e-07
5e-07
4e-07
2e-07
1e-07
3e-16
-1e-07
-2e-07
-4e-07
-5e-07
5e-07
4e-07
2e-07
1e-07
3e-16
-1e-07
-2e-07
-4e-07
-5e-07
5e-07
4e-07
2e-07
1e-07
3e-16
-1e-07
-2e-07
-4e-07
-5e-07
5e-07
4e-07
2e-07
1e-07
3e-16
-1e-07
-2e-07
-4e-07
-5e-07
5e-07
4e-07
2e-07
1e-07
3e-16
-1e-07
-2e-07
-4e-07
-5e-07
5e-07
4e-07
2e-07
1e-07
3e-16
-1e-07
-2e-07
-4e-07
-5e-07
5e-07
4e-07
2e-07
1e-07
3e-16
-1e-07
-2e-07
-4e-07
-5e-07
5e-07
4e-07
2e-07
1e-07
3e-16
-1e-07
-2e-07
-4e-07
-5e-07
5e-07
4e-07
2e-07
1e-07
3e-16
-1e-07
-2e-07
-4e-07
-5e-07
5e-07
4e-07
2e-07
1e-07
3e-16
-1e-07
-2e-07
-4e-07
-5e-07
5e-07
4e-07
2e-07
1e-07
3e-16
-1e-07
-2e-07
-4e-07
-5e-07
5e-07
4e-07
2e-07
1e-07
3e-16
-1e-07
-2e-07
-4e-07
-5e-07
5e-07
4e-07
2e-07
1e-07
3e-16
-1e-07
-2e-07
-4e-07
-5e-07
5e-07
4e-07
2e-07
1e-07
3e-16
-1e-07
-2e-07
-4e-07
-5e-07
5e-07
4e-07
2e-07
1e-07
3e-16
-1e-07
-2e-07
-4e-07
-5e-07
5e-07
4e-07
2e-07
1e-07
3e-16
-1e-07
-2e-07
-4e-07
-5e-07
5e-07
4e-07
2e-07
1e-07
3e-16
-1e-07
-2e-07
-4e-07
-5e-07
5e-07
4e-07
2e-07
1e-07
3e-16
-1e-07
-2e-07
-4e-07
-5e-07
5e-07
4e-07
2e-07
1e-07
3e-16
-1e-07
-2e-07
-4e-07
-5e-07
5e-07
4e-07
2e-07
1e-07
3e-16
-1e-07
-2e-07
-4e-07
-5e-07
5e-07
4e-07
2e-07
1e-07
3e-16
-1e-07
-2e-07
-4e-07
-5e-07
5e-07
4e-07
2e-07
1e-07
3e-16
-1e-07
-2e-07
-4e-07
-5e-07
5e-07
4e-07
2e-07
1e-07
3e-16
-1e-07
-2e-07
-4e-07
-5e-07
5e-07
4e-07
2e-07
1e-07
3e-16
-1e-07
-2e-07
-4e-07
-5e-07
5e-07
4e-07
2e-07
1e-07
3e-16
-1e-07
-2e-07
-4e-07
-5e-07
5e-07
4e-07
2e-07
1e-07
3e-16
-1e-07
-2e-07
-4e-07
-5e-07
5e-07
4e-07
2e-07
1e-07
3e-16
-1e-07
-2e-07
-4e-07
-5e-07
5e-07
4e-07
2e-07
1e-07
3e-16
-1e-07
-2e-07
-4e-07
-5e-07
5e-07
4e-07
2e-07
1e-07
3e-16
-1e-07
-2e-07
-4e-07
-5e-07
5e-07
4e-07
2e-07
1e-07
3e-16
-1e-07
-2e-07
-4e-07
-5e-07
5e-07
4e-07
2e-07
1e-07
3e-16
-1e-07
-2e-07
-4e-07
-5e-07
SCALARS u2 float
LOOKUP_TABLE default
-9e-18
-0.0001
-0.0001
-0.0001
-0.0001
-0.0001
-0.0001
-0.0001
-9e-05
-9e-05
-9e-05
-9e-05
-9e-05
-9e-05
-9e-05
-9e-05
-8e-05
-8e-05
-8e-05
-8e-05
-8e-05
-8e-05
-8e-05
-8e-05
-7e-05
-7e-05
-7e-05
-7e-05
-7e-05
-7e-05
-7e-05
-6e-05
-6e-05
-6e-05
-6e-05
-6e-05
-6e-05
-6e-05
-6e-05
-5e-05
-5e-05
-5e-05
-5e-05
-5e-05
-5e-05
-5e-05
-5e-05
-4e-05
-4e-05
-4e-05
-4e-05
-4e-05
-4e-05
-4e-05
-4e-05
-3e-05
-3e-05
-3e-05
-3e-05
-3e-05
-3e-05
-3e-05
-2e-05
-2e-05
-2e-05
-2e-05
-2e-05
-2e-05
-2e-05
-2e-05
-1e-05
-1e-05
-1e-05
-1e-05
-9e-06
-8e-06
-6e-06
-5e-06
-4e-06
-3e-06
-1e-06
-0.0001
-4e-17
-1e-06
-3e-06
-4e-06
-5e-06
-6e-06
-8e-06
-9e-06
-1e-05
-1e-05
-1e-05
-1e-05
-2e-05
-2e-05
-2e-05
-2e-05
-2e-05
-2e-05
-2e-05
-2e-05
-3e-05
-3e-05
-3e-05
-3e-05
-3e-05
-3e-05
-3e-05
-4e-05
-4e-05
-4e-05
-4e-05
-4e-05
-4e-05
-4e-05
-4e-05
-5e-05
-5e-05
-5e-05
-5e-05
-5e-05
-5e-05
-5e-05
-5e-05
-6e-05
-6e-05
-6e-05
-6e-05
-6e-05
-6e-05
-6e-05
-6e-05
-7e-05
-7e-05
-7e-05
-7e-05
-7e-05
-7e-05
-7e-05
-8e-05
-8e-05
-8e-05
-8e-05
-8e-05
-8e-05
-8e-05
-8e-05
-9e-05
-9e-05
-9e-05
-9e-05
-9e-05
-9e-05
-9e-05
-9e-05
-0.0001
-0.0001
-0.0001
-0.0001
-0.0001
-0.0001
-0.0001
-0.0001
-0.0001
-0.0001
-0.0001
-0.0001
-0.0001
-0.0001
-0.0001
-6e-16
-1e-16
-2e-17
-2e-16
-2e-16
-5e-17
3e-16
5e-16
1e-17
-1e-06
-1e-06
-1e-06
-1e-06
-1e-06
-1e-06
-1e-06
-1e-06
-1e-06
-3e-06
-3e-06
-3e-06
-3e-06
-2e-06
-3e-06
-3e-06
-3e-06
-3e-06
-4e-06
-4e-06
-4e-06
-4e-06
-4e-06
-4e-06
-4e-06
-4e-06
-4e-06
-5e-06
-5e-06
-5e-06
-5e-06
-5e-06
-5e-06
-5e-06
-5e-06
-5e-06
-6e-06
-6e-06
-6e-06
-6e-06
-6e-06
-6e-06
-6e-06
-6e-06
-6e-06
-8e-06
-8e-06
-8e-06
-8e-06
-8e-06
-8e-06
-8e-06
-8e-06
-8e-06
-9e-06
-9e-06
-9e-06
-9e-06
-9e-06
-9e-06
-9e-06
-9e-06
-9e-06
-1e-05
-1e-05
-1e-05
-1e-05
-1e-05
-1e-05
-1e-05
-1e-05
-1e-05
-1e-05
-1e-05
-1e-05
-1e-05
-1e-05
-1e-05
-1e-05
-1e-05
-1e-05
-1e-05
-1e-05
-1e-05
-1e-05
-1e-05
-1e-05
-1e-05
-1e-05
-1e-05
-1e-05
-1e-05
-1e-05
-1e-05
-1e-05
-1e-05
-1e-05
-1e-05
-1e-05
-2e-05
-2e-05
-2e-05
-2e-05
-2e-05
-2e-05
-2e-05
-2e-05
-2e-05
-2e-05
-2e-05
-2e-05
-2e-05
-2e-05
-2e-05
-2e-05
-2e-05
-2e-05
-2e-05
-2e-05
-2e-05
-2e-05
-2e-05
-2e-05
-2e-05
-2e-05
-2e-05
-2e-05
-2e-05
-2e-05
-2e-05
-2e-05
-2e-05
-2e-05
-2e-05
-2e-05
-2e-05
-2e-05
-2e-05
-2e-05
-2e-05
-2e-05
-2e-05
-2e-05
-2e-05
-2e-05
-2e-05
-2e-05
-2e-05
-2e-05
-2e-05
-2e-05
-2e-05
-2e-05
-2e-05
-2e-05
-2e-05
-2e-05
-2e-05
-2e-05
-2e-05
-2e-05
-2e-05
-2e-05
-2e-05
-2e-05
-2e-05
-2e-05
-2e-05
-2e-05
-2e-05
-2e-05
-3e-05
-3e-05
-3e-05
-3e-05
-3e-05
-3e-05
-3e-05
-3e-05
-3e-05
-3e-05
-3e-05
-3e-05
-3e-05
-3e-05
-3e-05
-3e-05
-3e-05
-3e-05
-3e-05
-3e-05
-3e-05
-3e-05
-3e-05
-3e-05
-3e-05
-3e-05
-3e-05
-3e-05
-3e-05
-3e-05
-3e-05
-3e-05
-3e-05
-3e-05
-3e-05
-3e-05
-3e-05
-3e-05
-3e-05
-3e-05
-3e-05
-3e-05
-3e-05
-3e-05
-3e-05
-3e-05
-3e-05
-3e-05
-3e-05
-3e-05
-3e-05
-3e-05
-3e-05
-3e-05
-3e-05
-3e-05
-3e-05
-3e-05
-3e-05
-3e-05
-3e-05
-3e-05
-3e-05
-4e-05
-4e-05
-4e-05
-4e-05
-4e-05
-4e-05
-4e-05
-4e-05
-4e-05
-4e-05
-4e-05
-4e-05
-4e-05
-4e-05
-4e-05
-4e-05
-4e-05
-4e-05
-4e-05
-4e-05
-4e-05
-4e-05
-4e-05
-4e-05
-4e-05
-4e-05
-4e-05
-4e-05
-4e-05
-4e-05
-4e-05
-4e-05
-4e-05
-4e-05
-4e-05
-4e-05
-4e-05
-4e-05
-4e-05
-4e-05
-4e-05
-4e-05
-4e-05
-4e-05
-4e-05
-4e-05
-4e-05
-4e-05
-4e-05
-4e-05
-4e-05
-4e-05
-4e-05
-4e-05
-4e-05
-4e-05
-4e-05
-4e-05
-4e-05
-4e-05
-4e-05
-4e-05
-4e-05
-4e-05
-4e-05
-4e-05
-4e-05
-4e-05
-4e-05
-4e-05
-4e-05
-4e-05
-5e-05
-5e-05
-5e-05
-5e-05
-5e-05
-5e-05
-5e-05
-5e-05
-5e-05
-5e-05
-5e-05
-5e-05
-5e-05
-5e-05
-5e-05
-5e-05
-5e-05
-5e-05
-5e-05
-5e-05
-5e-05
-5e-05
-5e-05
-5e-05
-5e-05
-5e-05
-5e-05
-5e-05
-5e-05
-5e-05
-5e-05
-5e-05
-5e-05
-5e-05
-5e-05
-5e-05
-5e-05
-5e-05
-5e-05
-5e-05
-5e-05
-5e-05
-5e-05
-5e-05
-5e-05
-5e-05
-5e-05
-5e-05
-5e-05
-5e-05
-5e-05
-5e-05
-5e-05
-5e-05
-5e-05
-5e-05
-5e-05
-5e-05
-5e-05
-5e-05
-5e-05
-5e-05
-5e-05
-5e-05
-5e-05
-5e-05
-5e-05
-5e-05
-5e-05
-5e-05
-5e-05
-5e-05
-6e-05
-6e-05
-6e-05
-6e-05
-6e-05
-6e-05
-6e-05
-6e-05
-6e-05
-6e-05
-6e-05
-6e-05
-6e-05
-6e-05
-6e-05
-6e-05
-6e-05
-6e-05
-6e-05
-6e-05
-6e-05
-6e-05
-6e-05
-6e-05
-6e-05
-6e-05
-6e-05
-6e-05
-6e-05
-6e-05
-6e-05
-6e-05
-6e-05
-6e-05
-6e-05
-6e-05
-6e-05
-6e-05
-6e-05
-6e-05
-6e-05
-6e-05
-6e-05
-6e-05
-6e-05
-6e-05
-6e-05
-6e-05
-6e-05
-6e-05
-6e-05
-6e-05
-6e-05
-6e-05
-6e-05
-6e-05
-6e-05
-6e-05
-6e-05
-6e-05
-6e-05
-6e-05
-6e-05
-6e-05
-6e-05
-6e-05
-6e-05
-6e-05
-6e-05
-6e-05
-6e-05
-6e-05
-7e-05
-7e-05
-7e-05
-7e-05
-7e-05
-7e-05
-7e-05
-7e-05
-7e-05
-7e-05
-7e-05
-7e-05
-7e-05
-7e-05
-7e-05
-7e-05
-7e-05
-7e-05
-7e-05
-7e-05
-7e-05
-7e-05
-7e-05
-7e-05
-7e-05
-7e-05
-7e-05
-7e-05
-7e-05
-7e-05
-7e-05
-7e-05
-7e-05
-7e-05
-7e-05
-7e-05
-7e-05
-7e-05
-7e-05
-7e-05
-7e-05
-7e-05
-7e-05
-7e-05
-7e-05
-7e-05
-7e-05
-7e-05
-7e-05
-7e-05
-7e-05
-7e-05
-7e-05
-7e-05
-7e-05
-7e-05
-7e-05
-7e-05
-7e-05
-7e-05
-7e-05
-7e-05
-7e-05
-8e-05
-8e-05
-8e-05
-8e-05
-8e-05
-8e-05
-8e-05
-8e-05
-8e-05
-8e-05
-8e-05
-8e-05
-8e-05
-8e-05
-8e-05
-8e-05
-8e-05
-8e-05
-8e-05
-8e-05
-8e-05
-8e-05
-8e-05
-8e-05
-8e-05
-8e-05
-8e-05
-8e-05
-8e-05
-8e-05
-8e-05
-8e-05
-8e-05
-8e-05
-8e-05
-8e-05
-8e-05
-8e-05
-8e-05
-8e-05
-8e-05
-8e-05
-8e-05
-8e-05
-8e-05
-8e-05
-8e-05
-8e-05
-8e-05
-8e-05
-8e-05
-8e-05
-8e-05
-8e-05
-8e-05
-8e-05
-8e-05
-8e-05
-8e-05
-8e-05
-8e-05
-8e-05
-8e-05
-8e-05
-8e-05
-8e-05
-8e-05
-8e-05
-8e-05
-8e-05
-8e-05
-8e-05
-9e-05
-9e-05
-9e-05
-9e-05
-9e-05
-9e-05
-9e-05
-9e-05
-9e-05
-9e-05
-9e-05
-9e-05
-9e-05
-9e-05
-9e-05
-9e-05
-9e-05
-9e-05
-9e-05
-9e-05
-9e-05
-9e-05
-9e-05
-9e-05
-9e-05
-9e-05
-9e-05
-9e-05
-9e-05
-9e-05
-9e-05
-9e-05
-9e-05
-9e-05
-9e-05
-9e-05
-9e-05
-9e-05
-9e-05
-9e-05
-9e-05
-9e-05
-9e-05
-9e-05
-9e-05
-9e-05
-9e-05
-9e-05
-9e-05
-9e-05
-9e-05
-9e-05
-9e-05
-9e-05
-9e-05
-9e-05
-9e-05
-9e-05
-9e-05
-9e-05
-9e-05
-9e-05
-9e-05
-9e-05
-9e-05
-9e-05
-9e-05
-9e-05
-9e-05
-9e-05
-9e-05
-9e-05
-0.0001
-0.0001
-0.0001
-0.0001
-0.0001
-0.0001
-0.0001
-0.0001
-0.0001
-0.0001
-0.0001
-0.0001
-0.0001
-0.0001
-0.0001
-0.0001
-0.0001
-0.0001
-0.0001
-0.0001
-0.0001
-0.0001
-0.0001
-0.0001
-0.0001
-0.0001
-0.0001
-0.0001
-0.0001
-0.0001
-0.0001
-0.0001
-0.0001
-0.0001
-0.0001
-0.0001
-0.0001
-0.0001
-0.0001
-0.0001
-0.0001
-0.0001
-0.0001
-0.0001
-0.0001
-0.0001
-0.0001
-0.0001
-0.0001
-0.0001
-0.0001
-0.0001
-0.0001
-0.0001
SCALARS strain_1 float
LOOKUP_TABLE default
-0.000043
-0.068146
-0.067116
-0.066080
-0.065040
-0.063995
-0.062946
-0.061892
-0.060835
-0.059774
-0.058709
-0.057641
-0.056571
-0.055497
-0.054422
-0.053345
-0.052266
-0.051186
-0.050106
-0.049025
-0.047943
-0.046863
-0.045783
-0.044704
-0.043626
-0.042551
-0.041478
-0.040408
-0.039341
-0.038278
-0.037219
-0.036166
-0.035117
-0.034074
-0.033038
-0.032008
-0.030985
-0.029970
-0.028964
-0.027966
-0.026977
-0.025999
-0.025031
-0.024073
-0.023127
-0.022193
-0.021271
-0.020363
-0.019468
-0.018586
-0.017720
-0.016868
-0.016032
-0.015211
-0.014407
-0.013620
-0.012849
-0.012097
-0.011362
-0.010646
-0.009949
-0.009271
-0.008612
-0.007973
-0.007354
-0.006755
-0.006177
-0.005620
-0.005083
-0.004567
-0.004073
-0.003600
-0.003149
-0.002718
-0.002310
-0.001922
-0.001557
-0.001212
-0.000888
-0.000585
-0.000304
-0.068207
-0.000001
-0.000263
-0.000546
-0.000850
-0.001174
-0.001519
-0.001886
-0.002275
-0.002685
-0.003116
-0.003568
-0.004043
-0.004538
-0.005055
-0.005592
-0.006151
-0.006731
-0.007331
-0.007951
-0.008592
-0.009252
-0.009931
-0.010631
-0.011348
-0.012084
-0.012838
-0.013610
-0.014399
-0.015204
-0.016026
-0.016864
-0.017718
-0.018586
-0.019469
-0.020366
-0.021276
-0.022199
-0.023135
-0.024082
-0.025041
-0.026011
-0.026991
-0.027981
-0.028980
-0.029989
-0.031005
-0.032029
-0.033061
-0.034099
-0.035143
-0.036193
-0.037249
-0.038309
-0.039373
-0.040441
-0.041512
-0.042587
-0.043663
-0.044742
-0.045822
-0.046904
-0.047986
-0.049068
-0.050150
-0.051232
-0.052313
-0.053393
-0.054471
-0.055548
-0.056621
-0.057693
-0.058762
-0.059828
-0.060890
-0.061948
-0.063003
-0.064053
-0.065098
-0.066140
-0.067176
-0.068201
-0.068195
-0.068189
-0.068183
-0.068177
-0.068171
-0.068165
-0.068159
-0.068152
-0.000035
-0.000027
-0.000021
-0.000016
-0.000011
-0.000007
-0.000005
-0.000003
-0.000002
-0.000264
-0.000264
-0.000266
-0.000269
-0.000272
-0.000277
-0.000282
-0.000289
-0.000296
-0.000546
-0.000547
-0.000548
-0.000551
-0.000554
-0.000559
-0.000564
-0.000571
-0.000578
-0.000849
-0.000850
-0.000851
-0.000854
-0.000858
-0.000862
-0.000867
-0.000873
-0.000880
-0.001173
-0.001174
-0.001176
-0.001178
-0.001181
-0.001186
-0.001191
-0.001197
-0.001204
-0.001519
-0.001519
-0.001521
-0.001523
-0.001527
-0.001531
-0.001536
-0.001542
-0.001548
-0.001886
-0.001886
-0.001888
-0.001890
-0.001893
-0.001897
-0.001902
-0.001908
-0.001915
-0.002274
-0.002274
-0.002276
-0.002278
-0.002281
-0.002285
-0.002290
-0.002295
-0.002302
-0.002684
-0.002684
-0.002685
-0.002687
-0.002690
-0.002694
-0.002699
-0.002705
-0.002711
-0.003115
-0.003115
-0.003116
-0.003118
-0.003121
-0.003124
-0.003129
-0.003135
-0.003141
-0.003568
-0.003568
-0.003568
-0.003570
-0.003573
-0.003577
-0.003581
-0.003586
-0.003593
-0.004041
-0.004041
-0.004042
-0.004044
-0.004047
-0.004050
-0.004055
-0.004060
-0.004066
-0.004537
-0.004537
-0.004537
-0.004539
-0.004541
-0.004545
-0.004549
-0.004554
-0.004561
-0.005053
-0.005053
-0.005054
-0.005055
-0.005057
-0.005061
-0.005065
-0.005070
-0.005076
-0.005591
-0.005591
-0.005591
-0.005592
-0.005595
-0.005598
-0.005602
-0.005607
-0.005613
-0.006150
-0.006149
-0.006150
-0.006151
-0.006153
-0.006156
-0.006160
-0.006165
-0.006170
-0.006729
-0.006729
-0.006729
-0.006730
-0.006732
-0.006735
-0.006738
-0.006743
-0.006749
-0.007329
-0.007328
-0.007328
-0.007329
-0.007331
-0.007334
-0.007337
-0.007342
-0.007348
-0.007949
-0.007948
-0.007948
-0.007949
-0.007951
-0.007954
-0.007957
-0.007961
-0.007967
-0.008590
-0.008589
-0.008589
-0.008589
-0.008591
-0.008593
-0.008597
-0.008601
-0.008606
-0.009250
-0.009249
-0.009248
-0.009249
-0.009250
-0.009253
-0.009256
-0.009260
-0.009265
-0.009930
-0.009928
-0.009928
-0.009928
-0.009930
-0.009932
-0.009935
-0.009939
-0.009943
-0.010628
-0.010627
-0.010626
-0.010627
-0.010628
-0.010630
-0.010633
-0.010636
-0.010641
-0.011346
-0.011344
-0.011343
-0.011344
-0.011345
-0.011346
-0.011349
-0.011353
-0.011357
-0.012082
-0.012080
-0.012079
-0.012079
-0.012080
-0.012082
-0.012084
-0.012088
-0.012092
-0.012836
-0.012834
-0.012833
-0.012833
-0.012834
-0.012835
-0.012837
-0.012841
-0.012845
-0.013607
-0.013605
-0.013604
-0.013604
-0.013605
-0.013606
-0.013609
-0.013611
-0.013615
-0.014396
-0.014394
-0.014393
-0.014392
-0.014393
-0.014394
-0.014396
-0.014399
-0.014403
-0.015202
-0.015200
-0.015198
-0.015198
-0.015198
-0.015199
-0.015201
-0.015204
-0.015207
-0.016024
-0.016021
-0.016020
-0.016019
-0.016019
-0.016020
-0.016022
-0.016024
-0.016028
-0.016861
-0.016859
-0.016858
-0.016857
-0.016857
-0.016858
-0.016859
-0.016861
-0.016864
-0.017715
-0.017712
-0.017710
-0.017710
-0.017710
-0.017710
-0.017711
-0.017714
-0.017716
-0.018583
-0.018580
-0.018579
-0.018578
-0.018577
-0.018578
-0.018579
-0.018581
-0.018583
-0.019466
-0.019463
-0.019461
-0.019460
-0.019460
-0.019460
-0.019461
-0.019462
-0.019465
-0.020362
-0.020360
-0.020358
-0.020356
-0.020356
-0.020356
-0.020357
-0.020358
-0.020360
-0.021272
-0.021270
-0.021268
-0.021266
-0.021265
-0.021265
-0.021266
-0.021267
-0.021269
-0.022195
-0.022193
-0.022190
-0.022189
-0.022188
-0.022188
-0.022188
-0.022189
-0.022191
-0.023131
-0.023128
-0.023126
-0.023124
-0.023123
-0.023123
-0.023123
-0.023124
-0.023125
-0.024079
-0.024076
-0.024073
-0.024071
-0.024070
-0.024069
-0.024069
-0.024070
-0.024071
-0.025037
-0.025034
-0.025032
-0.025030
-0.025028
-0.025028
-0.025027
-0.025028
-0.025029
-0.026007
-0.026004
-0.026001
-0.025999
-0.025997
-0.025997
-0.025996
-0.025996
-0.025997
-0.026987
-0.026984
-0.026981
-0.026979
-0.026977
-0.026976
-0.026975
-0.026976
-0.026976
-0.027977
-0.027974
-0.027971
-0.027968
-0.027967
-0.027965
-0.027965
-0.027964
-0.027965
-0.028976
-0.028973
-0.028970
-0.028967
-0.028965
-0.028964
-0.028963
-0.028963
-0.028963
-0.029984
-0.029981
-0.029978
-0.029975
-0.029973
-0.029972
-0.029970
-0.029970
-0.029970
-0.031001
-0.030997
-0.030994
-0.030991
-0.030989
-0.030987
-0.030986
-0.030985
-0.030985
-0.032025
-0.032021
-0.032018
-0.032015
-0.032012
-0.032011
-0.032009
-0.032008
-0.032008
-0.033056
-0.033052
-0.033049
-0.033046
-0.033043
-0.033041
-0.033040
-0.033039
-0.033038
-0.034094
-0.034090
-0.034087
-0.034084
-0.034081
-0.034079
-0.034077
-0.034076
-0.034075
-0.035139
-0.035135
-0.035131
-0.035127
-0.035125
-0.035122
-0.035120
-0.035119
-0.035118
-0.036189
-0.036184
-0.036181
-0.036177
-0.036175
-0.036172
-0.036170
-0.036168
-0.036167
-0.037244
-0.037240
-0.037236
-0.037232
-0.037229
-0.037226
-0.037224
-0.037222
-0.037221
-0.038304
-0.038299
-0.038296
-0.038292
-0.038289
-0.038286
-0.038283
-0.038281
-0.038280
-0.039368
-0.039364
-0.039360
-0.039356
-0.039353
-0.039350
-0.039347
-0.039345
-0.039343
-0.040436
-0.040432
-0.040427
-0.040424
-0.040420
-0.040417
-0.040414
-0.040412
-0.040409
-0.041507
-0.041503
-0.041499
-0.041495
-0.041491
-0.041488
-0.041485
-0.041482
-0.041480
-0.042582
-0.042577
-0.042573
-0.042569
-0.042565
-0.042562
-0.042558
-0.042556
-0.042553
-0.043658
-0.043654
-0.043649
-0.043645
-0.043641
-0.043638
-0.043634
-0.043631
-0.043629
-0.044737
-0.044732
-0.044728
-0.044723
-0.044720
-0.044716
-0.044712
-0.044709
-0.044706
-0.045817
-0.045812
-0.045808
-0.045803
-0.045799
-0.045796
-0.045792
-0.045788
-0.045785
-0.046899
-0.046894
-0.046889
-0.046884
-0.046880
-0.046876
-0.046873
-0.046869
-0.046866
-0.047981
-0.047976
-0.047971
-0.047966
-0.047962
-0.047958
-0.047954
-0.047950
-0.047947
-0.049063
-0.049058
-0.049053
-0.049048
-0.049044
-0.049040
-0.049036
-0.049032
-0.049028
-0.050145
-0.050140
-0.050135
-0.050130
-0.050126
-0.050122
-0.050117
-0.050113
-0.050109
-0.051227
-0.051222
-0.051217
-0.051212
-0.051207
-0.051203
-0.051199
-0.051194
-0.051190
-0.052308
-0.052303
-0.052298
-0.052293
-0.052288
-0.052283
-0.052279
-0.052275
-0.052270
-0.053388
-0.053382
-0.053377
-0.053372
-0.053367
-0.053363
-0.053358
-0.053354
-0.053349
-0.054466
-0.054460
-0.054455
-0.054450