# vtk DataFile Version 2.0
Generated volume Mesh
ASCII
DATASET UNSTRUCTURED_GRID
POINTS 891 float
0.005000 0.100000 0.000000
0.005000 0.000000 0.000000
0.005000 0.001250 0.000000
0.005000 0.002500 0.000000
0.005000 0.003750 0.000000
0.005000 0.005000 0.000000
0.005000 0.006250 0.000000
0.005000 0.007500 0.000000
0.005000 0.008750 0.000000
0.005000 0.010000 0.000000
0.005000 0.011250 0.000000
0.005000 0.012500 0.000000
0.005000 0.013750 0.000000
0.005000 0.015000 0.000000
0.005000 0.016250 0.000000
0.005000 0.017500 0.000000
0.005000 0.018750 0.000000
0.005000 0.020000 0.000000
0.005000 0.021250 0.000000
0.005000 0.022500 0.000000
0.005000 0.023750 0.000000
0.005000 0.025000 0.000000
0.005000 0.026250 0.000000
0.005000 0.027500 0.000000
0.005000 0.028750 0.000000
0.005000 0.030000 0.000000
0.005000 0.031250 0.000000
0.005000 0.032500 0.000000
0.005000 0.033750 0.000000
0.005000 0.035000 0.000000
0.005000 0.036250 0.000000
0.005000 0.037500 0.000000
0.005000 0.038750 0.000000
0.005000 0.040000 0.000000
0.005000 0.041250 0.000000
0.005000 0.042500 0.000000
0.005000 0.043750 0.000000
0.005000 0.045000 0.000000
0.005000 0.046250 0.000000
0.005000 0.047500 0.000000
0.005000 0.048750 0.000000
0.005000 0.050000 0.000000
0.005000 0.051250 0.000000
0.005000 0.052500 0.000000
0.005000 0.053750 0.000000
0.005000 0.055000 0.000000
0.005000 0.056250 0.000000
0.005000 0.057500 0.000000
0.005000 0.058750 0.000000
0.005000 0.060000 0.000000
0.005000 0.061250 0.000000
0.005000 0.062500 0.000000
0.005000 0.063750 0.000000
0.005000 0.065000 0.000000
0.005000 0.066250 0.000000
0.005000 0.067500 0.000000
0.005000 0.068750 0.000000
0.005000 0.070000 0.000000
0.005000 0.071250 0.000000
0.005000 0.072500 0.000000
0.005000 0.073750 0.000000
0.005000 0.075000 0.000000
0.005000 0.076250 0.000000
0.005000 0.077500 0.000000
0.005000 0.078750 0.000000
0.005000 0.080000 0.000000
0.005000 0.081250 0.000000
0.005000 0.082500 0.000000
0.005000 0.083750 0.000000
0.005000 0.085000 0.000000
0.005000 0.086250 0.000000
0.005000 0.087500 0.000000
0.005000 0.088750 0.000000
0.005000 0.090000 0.000000
0.005000 0.091250 0.000000
0.005000 0.092500 0.000000
0.005000 0.093750 0.000000
0.005000 0.095000 0.000000
0.005000 0.096250 0.000000
0.005000 0.097500 0.000000
0.005000 0.098750 0.000000
0.000000 0.000000 0.000000
0.000000 0.100000 0.000000
0.000000 0.098750 0.000000
0.000000 0.097500 0.000000
0.000000 0.096250 0.000000
0.000000 0.095000 0.000000
0.000000 0.093750 0.000000
0.000000 0.092500 0.000000
0.000000 0.091250 0.000000
0.000000 0.090000 0.000000
0.000000 0.088750 0.000000
0.000000 0.087500 0.000000
0.000000 0.086250 0.000000
0.000000 0.085000 0.000000
0.000000 0.083750 0.000000
0.000000 0.082500 0.000000
0.000000 0.081250 0.000000
0.000000 0.080000 0.000000
0.000000 0.078750 0.000000
0.000000 0.077500 0.000000
0.000000 0.076250 0.000000
0.000000 0.075000 0.000000
0.000000 0.073750 0.000000
0.000000 0.072500 0.000000
0.000000 0.071250 0.000000
0.000000 0.070000 0.000000
0.000000 0.068750 0.000000
0.000000 0.067500 0.000000
0.000000 0.066250 0.000000
0.000000 0.065000 0.000000
0.000000 0.063750 0.000000
0.000000 0.062500 0.000000
0.000000 0.061250 0.000000
0.000000 0.060000 0.000000
0.000000 0.058750 0.000000
0.000000 0.057500 0.000000
0.000000 0.056250 0.000000
0.000000 0.055000 0.000000
0.000000 0.053750 0.000000
0.000000 0.052500 0.000000
0.000000 0.051250 0.000000
0.000000 0.050000 0.000000
0.000000 0.048750 0.000000
0.000000 0.047500 0.000000
0.000000 0.046250 0.000000
0.000000 0.045000 0.000000
0.000000 0.043750 0.000000
0.000000 0.042500 0.000000
0.000000 0.041250 0.000000
0.000000 0.040000 0.000000
0.000000 0.038750 0.000000
0.000000 0.037500 0.000000
0.000000 0.036250 0.000000
0.000000 0.035000 0.000000
0.000000 0.033750 0.000000
0.000000 0.032500 0.000000
0.000000 0.031250 0.000000
0.000000 0.030000 0.000000
0.000000 0.028750 0.000000
0.000000 0.027500 0.000000
0.000000 0.026250 0.000000
0.000000 0.025000 0.000000
0.000000 0.023750 0.000000
0.000000 0.022500 0.000000
0.000000 0.021250 0.000000
0.000000 0.020000 0.000000
0.000000 0.018750 0.000000
0.000000 0.017500 0.000000
0.000000 0.016250 0.000000
0.000000 0.015000 0.000000
0.000000 0.013750 0.000000
0.000000 0.012500 0.000000
0.000000 0.011250 0.000000
0.000000 0.010000 0.000000
0.000000 0.008750 0.000000
0.000000 0.007500 0.000000
0.000000 0.006250 0.000000
0.000000 0.005000 0.000000
0.000000 0.003750 0.000000
0.000000 0.002500 0.000000
0.000000 0.001250 0.000000
0.000500 0.000000 0.000000
0.001000 0.000000 0.000000
0.001500 0.000000 0.000000
0.002000 0.000000 0.000000
0.002500 0.000000 0.000000
0.003000 0.000000 0.000000
0.003500 0.000000 0.000000
0.004000 0.000000 0.000000
0.004500 0.000000 0.000000
0.004500 0.100000 0.000000
0.004000 0.100000 0.000000
0.003500 0.100000 0.000000
0.003000 0.100000 0.000000
0.002500 0.100000 0.000000
0.002000 0.100000 0.000000
0.001500 0.100000 0.000000
0.001000 0.100000 0.000000
0.000500 0.100000 0.000000
0.000500 0.098750 0.000000
0.001000 0.098750 0.000000
0.001500 0.098750 0.000000
0.002000 0.098750 0.000000
0.002500 0.098750 0.000000
0.003000 0.098750 0.000000
0.003500 0.098750 0.000000
0.004000 0.098750 0.000000
0.004500 0.098750 0.000000
0.000500 0.097500 0.000000
0.001000 0.097500 0.000000
0.001500 0.097500 0.000000
0.002000 0.097500 0.000000
0.002500 0.097500 0.000000
0.003000 0.097500 0.000000
0.003500 0.097500 0.000000
0.004000 0.097500 0.000000
0.004500 0.097500 0.000000
0.000500 0.096250 0.000000
0.001000 0.096250 0.000000
0.001500 0.096250 0.000000
0.002000 0.096250 0.000000
0.002500 0.096250 0.000000
0.003000 0.096250 0.000000
0.003500 0.096250 0.000000
0.004000 0.096250 0.000000
0.004500 0.096250 0.000000
0.000500 0.095000 0.000000
0.001000 0.095000 0.000000
0.001500 0.095000 0.000000
0.002000 0.095000 0.000000
0.002500 0.095000 0.000000
0.003000 0.095000 0.000000
0.003500 0.095000 0.000000
0.004000 0.095000 0.000000
0.004500 0.095000 0.000000
0.000500 0.093750 0.000000
0.001000 0.093750 0.000000
0.001500 0.093750 0.000000
0.002000 0.093750 0.000000
0.002500 0.093750 0.000000
0.003000 0.093750 0.000000
0.003500 0.093750 0.000000
0.004000 0.093750 0.000000
0.004500 0.093750 0.000000
0.000500 0.092500 0.000000
0.001000 0.092500 0.000000
0.001500 0.092500 0.000000
0.002000 0.092500 0.000000
0.002500 0.092500 0.000000
0.003000 0.092500 0.000000
0.003500 0.092500 0.000000
0.004000 0.092500 0.000000
0.004500 0.092500 0.000000
0.000500 0.091250 0.000000
0.001000 0.091250 0.000000
0.001500 0.091250 0.000000
0.002000 0.091250 0.000000
0.002500 0.091250 0.000000
0.003000 0.091250 0.000000
0.003500 0.091250 0.000000
0.004000 0.091250 0.000000
0.004500 0.091250 0.000000
0.000500 0.090000 0.000000
0.001000 0.090000 0.000000
0.001500 0.090000 0.000000
0.002000 0.090000 0.000000
0.002500 0.090000 0.000000
0.003000 0.090000 0.000000
0.003500 0.090000 0.000000
0.004000 0.090000 0.000000
0.004500 0.090000 0.000000
0.000500 0.088750 0.000000
0.001000 0.088750 0.000000
0.001500 0.088750 0.000000
0.002000 0.088750 0.000000
0.002500 0.088750 0.000000
0.003000 0.088750 0.000000
0.003500 0.088750 0.000000
0.004000 0.088750 0.000000
0.004500 0.088750 0.000000
0.000500 0.087500 0.000000
0.001000 0.087500 0.000000
0.001500 0.087500 0.000000
0.002000 0.087500 0.000000
0.002500 0.087500 0.000000
0.003000 0.087500 0.000000
0.003500 0.087500 0.000000
0.004000 0.087500 0.000000
0.004500 0.087500 0.000000
0.000500 0.086250 0.000000
0.001000 0.086250 0.000000
0.001500 0.086250 0.000000
0.002000 0.086250 0.000000
0.002500 0.086250 0.000000
0.003000 0.086250 0.000000
0.003500 0.086250 0.000000
0.004000 0.086250 0.000000
0.004500 0.086250 0.000000
0.000500 0.085000 0.000000
0.001000 0.085000 0.000000
0.001500 0.085000 0.000000
0.002000 0.085000 0.000000
0.002500 0.085000 0.000000
0.003000 0.085000 0.000000
0.003500 0.085000 0.000000
0.004000 0.085000 0.000000
0.004500 0.085000 0.000000
0.000500 0.083750 0.000000
0.001000 0.083750 0.000000
0.001500 0.083750 0.000000
0.002000 0.083750 0.000000
0.002500 0.083750 0.000000
0.003000 0.083750 0.000000
0.003500 0.083750 0.000000
0.004000 0.083750 0.000000
0.004500 0.083750 0.000000
0.000500 0.082500 0.000000
0.001000 0.082500 0.000000
0.001500 0.082500 0.000000
0.002000 0.082500 0.000000
0.002500 0.082500 0.000000
0.003000 0.082500 0.000000
0.003500 0.082500 0.000000
0.004000 0.082500 0.000000
0.004500 0.082500 0.000000
0.000500 0.081250 0.000000
0.001000 0.081250 0.000000
0.001500 0.081250 0.000000
0.002000 0.081250 0.000000
0.002500 0.081250 0.000000
0.003000 0.081250 0.000000
0.003500 0.081250 0.000000
0.004000 0.081250 0.000000
0.004500 0.081250 0.000000
0.000500 0.080000 0.000000
0.001000 0.080000 0.000000
0.001500 0.080000 0.000000
0.002000 0.080000 0.000000
0.002500 0.080000 0.000000
0.003000 0.080000 0.000000
0.003500 0.080000 0.000000
0.004000 0.080000 0.000000
0.004500 0.080000 0.000000
0.000500 0.078750 0.000000
0.001000 0.078750 0.000000
0.001500 0.078750 0.000000
0.002000 0.078750 0.000000
0.002500 0.078750 0.000000
0.003000 0.078750 0.000000
0.003500 0.078750 0.000000
0.004000 0.078750 0.000000
0.004500 0.078750 0.000000
0.000500 0.077500 0.000000
0.001000 0.077500 0.000000
0.001500 0.077500 0.000000
0.002000 0.077500 0.000000
0.002500 0.077500 0.000000
0.003000 0.077500 0.000000
0.003500 0.077500 0.000000
0.004000 0.077500 0.000000
0.004500 0.077500 0.000000
0.000500 0.076250 0.000000
0.001000 0.076250 0.000000
0.001500 0.076250 0.000000
0.002000 0.076250 0.000000
0.002500 0.076250 0.000000
0.003000 0.076250 0.000000
0.003500 0.076250 0.000000
0.004000 0.076250 0.000000
0.004500 0.076250 0.000000
0.000500 0.075000 0.000000
0.001000 0.075000 0.000000
0.001500 0.075000 0.000000
0.002000 0.075000 0.000000
0.002500 0.075000 0.000000
0.003000 0.075000 0.000000
0.003500 0.075000 0.000000
0.004000 0.075000 0.000000
0.004500 0.075000 0.000000
0.000500 0.073750 0.000000
0.001000 0.073750 0.000000
0.001500 0.073750 0.000000
0.002000 0.073750 0.000000
0.002500 0.073750 0.000000
0.003000 0.073750 0.000000
[...]
POINT_DATA 891
SCALARS u1 float
LOOKUP_TABLE default
4e-16
-2e-06
-2e-06
-2e-06
-2e-06
-2e-06
-2e-06
-2e-06
-2e-06
-2e-06
-2e-06
-2e-06
-2e-06
-2e-06
-2e-06
-2e-06
-2e-06
-2e-06
-2e-06
-2e-06
-2e-06
-2e-06
-2e-06
-2e-06
-2e-06
-2e-06
-2e-06
-2e-06
-2e-06
-2e-06
-2e-06
-2e-06
-2e-06
-2e-06
-2e-06
-2e-06
-2e-06
-2e-06
-2e-06
-2e-06
-2e-06
-2e-06
-2e-06
-2e-06
-2e-06
-2e-06
-2e-06
-2e-06
-2e-06
-2e-06
-2e-06
-2e-06
-2e-06
-2e-06
-2e-06
-2e-06
-2e-06
-2e-06
-2e-06
-2e-06
-2e-06
-2e-06
-2e-06
-2e-06
-2e-06
-2e-06
-2e-06
-2e-06
-2e-06
-2e-06
-2e-06
-2e-06
-2e-06
-2e-06
-2e-06
-2e-06
-2e-06
-2e-06
-2e-06
-2e-06
-1e-06
2e-06
-9e-17
1e-06
2e-06
2e-06
2e-06
2e-06
2e-06
2e-06
2e-06
2e-06
2e-06
2e-06
2e-06
2e-06
2e-06
2e-06
2e-06
2e-06
2e-06
2e-06
2e-06
2e-06
2e-06
2e-06
2e-06
2e-06
2e-06
2e-06
2e-06
2e-06
2e-06
2e-06
2e-06
2e-06
2e-06
2e-06
2e-06
2e-06
2e-06
2e-06
2e-06
2e-06
2e-06
2e-06
2e-06
2e-06
2e-06
2e-06
2e-06
2e-06
2e-06
2e-06
2e-06
2e-06
2e-06
2e-06
2e-06
2e-06
2e-06
2e-06
2e-06
2e-06
2e-06
2e-06
2e-06
2e-06
2e-06
2e-06
2e-06
2e-06
2e-06
2e-06
2e-06
2e-06
2e-06
2e-06
2e-06
2e-06
2e-06
2e-06
2e-06
1e-06
8e-07
4e-07
-7e-16
-4e-07
-8e-07
-1e-06
-2e-06
-4e-16
-4e-17
-7e-16
-4e-16
-5e-16
-3e-16
2e-16
5e-16
-3e-16
1e-06
7e-07
5e-07
2e-07
2e-14
-2e-07
-5e-07
-7e-07
-1e-06
2e-06
1e-06
7e-07
4e-07
2e-14
-4e-07
-7e-07
-1e-06
-2e-06
2e-06
1e-06
8e-07
4e-07
3e-14
-4e-07
-8e-07
-1e-06
-2e-06
2e-06
1e-06
8e-07
4e-07
3e-14
-4e-07
-8e-07
-1e-06
-2e-06
2e-06
1e-06
8e-07
4e-07
3e-14
-4e-07
-8e-07
-1e-06
-2e-06
2e-06
1e-06
8e-07
4e-07
3e-14
-4e-07
-8e-07
-1e-06
-2e-06
2e-06
1e-06
8e-07
4e-07
3e-14
-4e-07
-8e-07
-1e-06
-2e-06
2e-06
1e-06
8e-07
4e-07
2e-14
-4e-07
-8e-07
-1e-06
-2e-06
2e-06
1e-06
8e-07
4e-07
2e-14
-4e-07
-8e-07
-1e-06
-2e-06
2e-06
1e-06
8e-07
4e-07
2e-14
-4e-07
-8e-07
-1e-06
-2e-06
2e-06
1e-06
8e-07
4e-07
2e-14
-4e-07
-8e-07
-1e-06
-2e-06
2e-06
1e-06
8e-07
4e-07
1e-14
-4e-07
-8e-07
-1e-06
-2e-06
2e-06
1e-06
8e-07
4e-07
1e-14
-4e-07
-8e-07
-1e-06
-2e-06
2e-06
1e-06
8e-07
4e-07
8e-15
-4e-07
-8e-07
-1e-06
-2e-06
2e-06
1e-06
8e-07
4e-07
6e-15
-4e-07
-8e-07
-1e-06
-2e-06
2e-06
1e-06
8e-07
4e-07
5e-15
-4e-07
-8e-07
-1e-06
-2e-06
2e-06
1e-06
8e-07
4e-07
3e-15
-4e-07
-8e-07
-1e-06
-2e-06
2e-06
1e-06
8e-07
4e-07
2e-15
-4e-07
-8e-07
-1e-06
-2e-06
2e-06
1e-06
8e-07
4e-07
1e-15
-4e-07
-8e-07
-1e-06
-2e-06
2e-06
1e-06
8e-07
4e-07
7e-16
-4e-07
-8e-07
-1e-06
-2e-06
2e-06
1e-06
8e-07
4e-07
2e-16
-4e-07
-8e-07
-1e-06
-2e-06
2e-06
1e-06
8e-07
4e-07
-1e-16
-4e-07
-8e-07
-1e-06
-2e-06
2e-06
1e-06
8e-07
4e-07
-4e-16
-4e-07
-8e-07
-1e-06
-2e-06
2e-06
1e-06
8e-07
4e-07
-6e-16
-4e-07
-8e-07
-1e-06
-2e-06
2e-06
1e-06
8e-07
4e-07
-7e-16
-4e-07
-8e-07
-1e-06
-2e-06
2e-06
1e-06
8e-07
4e-07
-8e-16
-4e-07
-8e-07
-1e-06
-2e-06
2e-06
1e-06
8e-07
4e-07
-8e-16
-4e-07
-8e-07
-1e-06
-2e-06
2e-06
1e-06
8e-07
4e-07
-9e-16
-4e-07
-8e-07
-1e-06
-2e-06
2e-06
1e-06
8e-07
4e-07
-9e-16
-4e-07
-8e-07
-1e-06
-2e-06
2e-06
1e-06
8e-07
4e-07
-9e-16
-4e-07
-8e-07
-1e-06
-2e-06
2e-06
1e-06
8e-07
4e-07
-8e-16
-4e-07
-8e-07
-1e-06
-2e-06
2e-06
1e-06
8e-07
4e-07
-8e-16
-4e-07
-8e-07
-1e-06
-2e-06
2e-06
1e-06
8e-07
4e-07
-8e-16
-4e-07
-8e-07
-1e-06
-2e-06
2e-06
1e-06
8e-07
4e-07
-8e-16
-4e-07
-8e-07
-1e-06
-2e-06
2e-06
1e-06
8e-07
4e-07
-8e-16
-4e-07
-8e-07
-1e-06
-2e-06
2e-06
1e-06
8e-07
4e-07
-7e-16
-4e-07
-8e-07
-1e-06
-2e-06
2e-06
1e-06
8e-07
4e-07
-7e-16
-4e-07
-8e-07
-1e-06
-2e-06
2e-06
1e-06
8e-07
4e-07
-7e-16
-4e-07
-8e-07
-1e-06
-2e-06
2e-06
1e-06
8e-07
4e-07
-7e-16
-4e-07
-8e-07
-1e-06
-2e-06
2e-06
1e-06
8e-07
4e-07
-7e-16
-4e-07
-8e-07
-1e-06
-2e-06
2e-06
1e-06
8e-07
4e-07
-7e-16
-4e-07
-8e-07
-1e-06
-2e-06
2e-06
1e-06
8e-07
4e-07
-7e-16
-4e-07
-8e-07
-1e-06
-2e-06
2e-06
1e-06
8e-07
4e-07
-7e-16
-4e-07
-8e-07
-1e-06
-2e-06
2e-06
1e-06
8e-07
4e-07
-7e-16
-4e-07
-8e-07
-1e-06
-2e-06
2e-06
1e-06
8e-07
4e-07
-7e-16
-4e-07
-8e-07
-1e-06
-2e-06
2e-06
1e-06
8e-07
4e-07
-7e-16
-4e-07
-8e-07
-1e-06
-2e-06
2e-06
1e-06
8e-07
4e-07
-7e-16
-4e-07
-8e-07
-1e-06
-2e-06
2e-06
1e-06
8e-07
4e-07
-7e-16
-4e-07
-8e-07
-1e-06
-2e-06
2e-06
1e-06
8e-07
4e-07
-7e-16
-4e-07
-8e-07
-1e-06
-2e-06
2e-06
1e-06
8e-07
4e-07
-7e-16
-4e-07
-8e-07
-1e-06
-2e-06
2e-06
1e-06
8e-07
4e-07
-7e-16
-4e-07
-8e-07
-1e-06
-2e-06
2e-06
1e-06
8e-07
4e-07
-7e-16
-4e-07
-8e-07
-1e-06
-2e-06
2e-06
1e-06
8e-07
4e-07
-7e-16
-4e-07
-8e-07
-1e-06
-2e-06
2e-06
1e-06
8e-07
4e-07
-7e-16
-4e-07
-8e-07
-1e-06
-2e-06
2e-06
1e-06
8e-07
4e-07
-7e-16
-4e-07
-8e-07
-1e-06
-2e-06
2e-06
1e-06
8e-07
4e-07
-7e-16
-4e-07
-8e-07
-1e-06
-2e-06
2e-06
1e-06
8e-07
4e-07
-7e-16
-4e-07
-8e-07
-1e-06
-2e-06
2e-06
1e-06
8e-07
4e-07
-7e-16
-4e-07
-8e-07
-1e-06
-2e-06
2e-06
1e-06
8e-07
4e-07
-7e-16
-4e-07
-8e-07
-1e-06
-2e-06
2e-06
1e-06
8e-07
4e-07
-7e-16
-4e-07
-8e-07
-1e-06
-2e-06
2e-06
1e-06
8e-07
4e-07
-7e-16
-4e-07
-8e-07
-1e-06
-2e-06
2e-06
1e-06
8e-07
4e-07
-7e-16
-4e-07
-8e-07
-1e-06
-2e-06
2e-06
1e-06
8e-07
4e-07
-7e-16
-4e-07
-8e-07
-1e-06
-2e-06
2e-06
1e-06
8e-07
4e-07
-7e-16
-4e-07
-8e-07
-1e-06
-2e-06
2e-06
1e-06
8e-07
4e-07
-7e-16
-4e-07
-8e-07
-1e-06
-2e-06
2e-06
1e-06
8e-07
4e-07
-7e-16
-4e-07
-8e-07
-1e-06
-2e-06
2e-06
1e-06
8e-07
4e-07
-7e-16
-4e-07
-8e-07
-1e-06
-2e-06
2e-06
1e-06
8e-07
4e-07
-7e-16
-4e-07
-8e-07
-1e-06
-2e-06
2e-06
1e-06
8e-07
4e-07
-7e-16
-4e-07
-8e-07
-1e-06
-2e-06
2e-06
1e-06
8e-07
4e-07
-7e-16
-4e-07
-8e-07
-1e-06
-2e-06
2e-06
1e-06
8e-07
4e-07
-7e-16
-4e-07
-8e-07
-1e-06
-2e-06
2e-06
1e-06
8e-07
4e-07
-7e-16
-4e-07
-8e-07
-1e-06
-2e-06
2e-06
1e-06
8e-07
4e-07
-7e-16
-4e-07
-8e-07
-1e-06
-2e-06
2e-06
1e-06
8e-07
4e-07
-7e-16
-4e-07
-8e-07
-1e-06
-2e-06
2e-06
1e-06
8e-07
4e-07
-7e-16
-4e-07
-8e-07
-1e-06
-2e-06
2e-06
1e-06
8e-07
4e-07
-7e-16
-4e-07
-8e-07
-1e-06
-2e-06
2e-06
1e-06
8e-07
4e-07
-7e-16
-4e-07
-8e-07
-1e-06
-2e-06
2e-06
1e-06
8e-07
4e-07
-7e-16
-4e-07
-8e-07
-1e-06
-2e-06
2e-06
1e-06
8e-07
4e-07
-7e-16
-4e-07
-8e-07
-1e-06
-2e-06
SCALARS u2 float
LOOKUP_TABLE default
-3e-16
-0.0003
-0.0002
-0.0002
-0.0002
-0.0002
-0.0002
-0.0002
-0.0002
-0.0002
-0.0002
-0.0002
-0.0002
-0.0002
-0.0002
-0.0002
-0.0002
-0.0002
-0.0002
-0.0002
-0.0002
-0.0002
-0.0002
-0.0002
-0.0002
-0.0002
-0.0002
-0.0002
-0.0002
-0.0002
-0.0002
-0.0002
-0.0002
-0.0002
-0.0001
-0.0001
-0.0001
-0.0001
-0.0001
-0.0001
-0.0001
-0.0001
-0.0001
-0.0001
-0.0001
-0.0001
-0.0001
-0.0001
-0.0001
-0.0001
-0.0001
-9e-05
-9e-05
-9e-05
-9e-05
-8e-05
-8e-05
-8e-05
-7e-05
-7e-05
-7e-05
-6e-05
-6e-05
-6e-05
-5e-05
-5e-05
-5e-05
-4e-05
-4e-05
-4e-05
-3e-05
-3e-05
-3e-05
-2e-05
-2e-05
-2e-05
-2e-05
-1e-05
-9e-06
-6e-06
-3e-06
-0.0003
5e-16
-3e-06
-6e-06
-9e-06
-1e-05
-2e-05
-2e-05
-2e-05
-2e-05
-3e-05
-3e-05
-3e-05
-4e-05
-4e-05
-4e-05
-5e-05
-5e-05
-5e-05
-6e-05
-6e-05
-6e-05
-7e-05
-7e-05
-7e-05
-8e-05
-8e-05
-8e-05
-9e-05
-9e-05
-9e-05
-9e-05
-0.0001
-0.0001
-0.0001
-0.0001
-0.0001
-0.0001
-0.0001
-0.0001
-0.0001
-0.0001
-0.0001
-0.0001
-0.0001
-0.0001
-0.0001
-0.0001
-0.0001
-0.0002
-0.0002
-0.0002
-0.0002
-0.0002
-0.0002
-0.0002
-0.0002
-0.0002
-0.0002
-0.0002
-0.0002
-0.0002
-0.0002
-0.0002
-0.0002
-0.0002
-0.0002
-0.0002
-0.0002
-0.0002
-0.0002
-0.0002
-0.0002
-0.0002
-0.0002
-0.0002
-0.0002
-0.0002
-0.0002
-0.0002
-0.0002
-0.0003
-0.0003
-0.0003
-0.0003
-0.0003
-0.0003
-0.0003
-0.0003
-0.0003
-1e-15
-1e-15
1e-15
8e-16
-6e-16
-9e-16
-6e-16
-3e-16
-1e-15
-3e-06
-3e-06
-3e-06
-3e-06
-3e-06
-3e-06
-3e-06
-3e-06
-3e-06
-6e-06
-6e-06
-6e-06
-6e-06
-6e-06
-6e-06
-6e-06
-6e-06
-6e-06
-9e-06
-9e-06
-9e-06
-9e-06
-9e-06
-9e-06
-9e-06
-9e-06
-9e-06
-1e-05
-1e-05
-1e-05
-1e-05
-1e-05
-1e-05
-1e-05
-1e-05
-1e-05
-2e-05
-2e-05
-2e-05
-2e-05
-2e-05
-2e-05
-2e-05
-2e-05
-2e-05
-2e-05
-2e-05
-2e-05
-2e-05
-2e-05
-2e-05
-2e-05
-2e-05
-2e-05
-2e-05
-2e-05
-2e-05
-2e-05
-2e-05
-2e-05
-2e-05
-2e-05
-2e-05
-2e-05
-2e-05
-2e-05
-2e-05
-2e-05
-2e-05
-2e-05
-2e-05
-2e-05
-3e-05
-3e-05
-3e-05
-3e-05
-3e-05
-3e-05
-3e-05
-3e-05
-3e-05
-3e-05
-3e-05
-3e-05
-3e-05
-3e-05
-3e-05
-3e-05
-3e-05
-3e-05
-3e-05
-3e-05
-3e-05
-3e-05
-3e-05
-3e-05
-3e-05
-3e-05
-3e-05
-4e-05
-4e-05
-4e-05
-4e-05
-4e-05
-4e-05
-4e-05
-4e-05
-4e-05
-4e-05
-4e-05
-4e-05
-4e-05
-4e-05
-4e-05
-4e-05
-4e-05
-4e-05
-4e-05
-4e-05
-4e-05
-4e-05
-4e-05
-4e-05
-4e-05
-4e-05
-4e-05
-5e-05
-5e-05
-5e-05
-5e-05
-5e-05
-5e-05
-5e-05
-5e-05
-5e-05
-5e-05
-5e-05
-5e-05
-5e-05
-5e-05
-5e-05
-5e-05
-5e-05
-5e-05
-5e-05
-5e-05
-5e-05
-5e-05
-5e-05
-5e-05
-5e-05
-5e-05
-5e-05
-6e-05
-6e-05
-6e-05
-6e-05
-6e-05
-6e-05
-6e-05
-6e-05
-6e-05
-6e-05
-6e-05
-6e-05
-6e-05
-6e-05
-6e-05
-6e-05
-6e-05
-6e-05
-6e-05
-6e-05
-6e-05
-6e-05
-6e-05
-6e-05
-6e-05
-6e-05
-6e-05
-7e-05
-7e-05
-7e-05
-7e-05
-7e-05
-7e-05
-7e-05
-7e-05
-7e-05
-7e-05
-7e-05
-7e-05
-7e-05
-7e-05
-7e-05
-7e-05
-7e-05
-7e-05
-7e-05
-7e-05
-7e-05
-7e-05
-7e-05
-7e-05
-7e-05
-7e-05
-7e-05
-8e-05
-8e-05
-8e-05
-8e-05
-8e-05
-8e-05
-8e-05
-8e-05
-8e-05
-8e-05
-8e-05
-8e-05
-8e-05
-8e-05
-8e-05
-8e-05
-8e-05
-8e-05
-8e-05
-8e-05
-8e-05
-8e-05
-8e-05
-8e-05
-8e-05
-8e-05
-8e-05
-9e-05
-9e-05
-9e-05
-9e-05
-9e-05
-9e-05
-9e-05
-9e-05
-9e-05
-9e-05
-9e-05
-9e-05
-9e-05
-9e-05
-9e-05
-9e-05
-9e-05
-9e-05
-9e-05
-9e-05
-9e-05
-9e-05
-9e-05
-9e-05
-9e-05
-9e-05
-9e-05
-9e-05
-9e-05
-9e-05
-9e-05
-9e-05
-9e-05
-9e-05
-9e-05
-9e-05
-0.0001
-0.0001
-0.0001
-0.0001
-0.0001
-0.0001
-0.0001
-0.0001
-0.0001
-0.0001
-0.0001
-0.0001
-0.0001
-0.0001
-0.0001
-0.0001
-0.0001
-0.0001
-0.0001
-0.0001
-0.0001
-0.0001
-0.0001
-0.0001
-0.0001
-0.0001
-0.0001
-0.0001
-0.0001
-0.0001
-0.0001
-0.0001
-0.0001
-0.0001
-0.0001
-0.0001
-0.0001
-0.0001
-0.0001
-0.0001
-0.0001
-0.0001
-0.0001
-0.0001
-0.0001
-0.0001
-0.0001
-0.0001
-0.0001
-0.0001
-0.0001
-0.0001
-0.0001
-0.0001
-0.0001
-0.0001
-0.0001
-0.0001
-0.0001
-0.0001
-0.0001
-0.0001
-0.0001
-0.0001
-0.0001
-0.0001
-0.0001
-0.0001
-0.0001
-0.0001
-0.0001
-0.0001
-0.0001
-0.0001
-0.0001
-0.0001
-0.0001
-0.0001
-0.0001
-0.0001
-0.0001
-0.0001
-0.0001
-0.0001
-0.0001
-0.0001
-0.0001
-0.0001
-0.0001
-0.0001
-0.0001
-0.0001
-0.0001
-0.0001
-0.0001
-0.0001
-0.0001
-0.0001
-0.0001
-0.0001
-0.0001
-0.0001
-0.0001
-0.0001
-0.0001
-0.0001
-0.0001
-0.0001
-0.0001
-0.0001
-0.0001
-0.0001
-0.0001
-0.0001
-0.0001
-0.0001
-0.0001
-0.0001
-0.0001
-0.0001
-0.0001
-0.0001
-0.0001
-0.0001
-0.0001
-0.0001
-0.0001
-0.0001
-0.0001
-0.0001
-0.0001
-0.0001
-0.0001
-0.0001
-0.0001
-0.0001
-0.0001
-0.0001
-0.0001
-0.0001
-0.0001
-0.0001
-0.0001
-0.0001
-0.0001
-0.0001
-0.0001
-0.0001
-0.0001
-0.0001
-0.0001
-0.0001
-0.0001
-0.0002
-0.0002
-0.0002
-0.0002
-0.0002
-0.0002
-0.0002
-0.0002
-0.0002
-0.0002
-0.0002
-0.0002
-0.0002
-0.0002
-0.0002
-0.0002
-0.0002
-0.0002
-0.0002
-0.0002
-0.0002
-0.0002
-0.0002
-0.0002
-0.0002
-0.0002
-0.0002
-0.0002
-0.0002
-0.0002
-0.0002
-0.0002
-0.0002
-0.0002
-0.0002
-0.0002
-0.0002
-0.0002
-0.0002
-0.0002
-0.0002
-0.0002
-0.0002
-0.0002
-0.0002
-0.0002
-0.0002
-0.0002
-0.0002
-0.0002
-0.0002
-0.0002
-0.0002
-0.0002
-0.0002
-0.0002
-0.0002
-0.0002
-0.0002
-0.0002
-0.0002
-0.0002
-0.0002
-0.0002
-0.0002
-0.0002
-0.0002
-0.0002
-0.0002
-0.0002
-0.0002
-0.0002
-0.0002
-0.0002
-0.0002
-0.0002
-0.0002
-0.0002
-0.0002
-0.0002
-0.0002
-0.0002
-0.0002
-0.0002
-0.0002
-0.0002
-0.0002
-0.0002
-0.0002
-0.0002
-0.0002
-0.0002
-0.0002
-0.0002
-0.0002
-0.0002
-0.0002
-0.0002
-0.0002
-0.0002
-0.0002
-0.0002
-0.0002
-0.0002
-0.0002
-0.0002
-0.0002
-0.0002
-0.0002
-0.0002
-0.0002
-0.0002
-0.0002
-0.0002
-0.0002
-0.0002
-0.0002
-0.0002
-0.0002
-0.0002
-0.0002
-0.0002
-0.0002
-0.0002
-0.0002
-0.0002
-0.0002
-0.0002
-0.0002
-0.0002
-0.0002
-0.0002
-0.0002
-0.0002
-0.0002
-0.0002
-0.0002
-0.0002
-0.0002
-0.0002
-0.0002
-0.0002
-0.0002
-0.0002
-0.0002
-0.0002
-0.0002
-0.0002
-0.0002
-0.0002
-0.0002
-0.0002
-0.0002
-0.0002
-0.0002
-0.0002
-0.0002
-0.0002
-0.0002
-0.0002
-0.0002
-0.0002
-0.0002
-0.0002
-0.0002
-0.0002
-0.0002
-0.0002
-0.0002
-0.0002
-0.0002
-0.0002
-0.0002
-0.0002
-0.0002
-0.0002
-0.0002
-0.0002
-0.0002
-0.0002
-0.0002
-0.0002
-0.0002
-0.0002
-0.0002
-0.0002
-0.0002
-0.0002
-0.0002
-0.0002
-0.0002
-0.0002
-0.0002
-0.0002
-0.0002
-0.0002
-0.0002
-0.0002
-0.0002
-0.0002
-0.0002
-0.0002
-0.0002
-0.0002
-0.0002
-0.0002
-0.0002
-0.0002
-0.0002
-0.0002
-0.0002
-0.0002
-0.0002
-0.0002
-0.0002
-0.0002
-0.0002
-0.0002
-0.0002
-0.0002
-0.0002
-0.0002
-0.0002
-0.0002
-0.0002
-0.0002
-0.0002
-0.0002
-0.0002
-0.0002
-0.0002
-0.0002
-0.0002
-0.0002
-0.0002
-0.0002
-0.0002
-0.0002
-0.0002
-0.0002
-0.0002
-0.0002
-0.0002
-0.0002
-0.0002
-0.0002
-0.0002
-0.0002
-0.0002
-0.0002
-0.0002
-0.0002
-0.0002
-0.0002
-0.0002
-0.0002
-0.0002
-0.0002
-0.0002
-0.0002
-0.0002
-0.0002
-0.0002
-0.0002
-0.0002
-0.0002
-0.0002
-0.0002
-0.0002
-0.0002
-0.0002
-0.0002
-0.0002
-0.0002
-0.0002
-0.0002
-0.0002
-0.0002
-0.0002
-0.0002
-0.0002
-0.0002
-0.0002
-0.0002
-0.0002
-0.0002
-0.0002
-0.0002
SCALARS strain_1 float
LOOKUP_TABLE default
-0.000140
-0.222309
-0.218948
-0.215571
-0.212177
-0.208770
-0.205346
-0.201909
-0.198460
-0.194997
-0.191525
-0.188042
-0.184549
-0.181049
-0.177542
-0.174028
-0.170509
-0.166986
-0.163461
-0.159934
-0.156408
-0.152882
-0.149358
-0.145838
-0.142324
-0.138817
-0.135316
-0.131824
-0.128345
-0.124878
-0.121424
-0.117987
-0.114567
-0.111164
-0.107782
-0.104423
-0.101087
-0.097777
-0.094493
-0.091237
-0.088013
-0.084821
-0.081662
-0.078539
-0.075452
-0.072406
-0.069399
-0.066435
-0.063515
-0.060640
-0.057812
-0.055033
-0.052305
-0.049628
-0.047004
-0.044436
-0.041923
-0.039468
-0.037071
-0.034736
-0.032461
-0.030248
-0.028099
-0.026014
-0.023994
-0.022040
-0.020155
-0.018336
-0.016585
-0.014903
-0.013291
-0.011748
-0.010275
-0.008870
-0.007538
-0.006273
-0.005079
-0.003954
-0.002898
-0.001911
-0.000991
-0.222507
-0.000005
-0.000859
-0.001782
-0.002772
-0.003831
-0.004957
-0.006156
-0.007423
-0.008759
-0.010167
-0.011644
-0.013191
-0.014807
-0.016493
-0.018248
-0.020070
-0.021962
-0.023919
-0.025943
-0.028033
-0.030187
-0.032404
-0.034684
-0.037025
-0.039426
-0.041886
-0.044404
-0.046978
-0.049606
-0.052288
-0.055022
-0.057807
-0.060639
-0.063518
-0.066444
-0.069413
-0.072426
-0.075477
-0.078568
-0.081697
-0.084861
-0.088059
-0.091288
-0.094548
-0.097837
-0.101153
-0.104493
-0.107858
-0.111244
-0.114652
-0.118077
-0.121519
-0.124977
-0.128449
-0.131934
-0.135428
-0.138933
-0.142446
-0.145964
-0.149488
-0.153015
-0.156545
-0.160077
-0.163606
-0.167135
-0.170662
-0.174183
-0.177701
-0.181213
-0.184716
-0.188213
-0.191699
-0.195174
-0.198638
-0.202092
-0.205531
-0.208958
-0.212368
-0.215764
-0.219144
-0.222488
-0.222469
-0.222450
-0.222431
-0.222411
-0.222391
-0.222371
-0.222350
-0.222330
-0.000113
-0.000088
-0.000068
-0.000051
-0.000037
-0.000024
-0.000015
-0.000009
-0.000006
-0.000859
-0.000863
-0.000868
-0.000877
-0.000889
-0.000903
-0.000921
-0.000942
-0.000965
-0.001782
-0.001784
-0.001789
-0.001798
-0.001809
-0.001824
-0.001841
-0.001862
-0.001885
-0.002771
-0.002773
-0.002779
-0.002787
-0.002797
-0.002812
-0.002830
-0.002849
-0.002872
-0.003829
-0.003830
-0.003836
-0.003844
-0.003855
-0.003869
-0.003886
-0.003905
-0.003929
-0.004957
-0.004958
-0.004962
-0.004971
-0.004981
-0.004995
-0.005011
-0.005031
-0.005053
-0.006153
-0.006155
-0.006160
-0.006167
-0.006177
-0.006190
-0.006206
-0.006225
-0.006249
-0.007421
-0.007421
-0.007425
-0.007432
-0.007442
-0.007455
-0.007471
-0.007490
-0.007512
-0.008757
-0.008758
-0.008761
-0.008768
-0.008778
-0.008789
-0.008806
-0.008825
-0.008846
-0.010164
-0.010164
-0.010167
-0.010174
-0.010183
-0.010196
-0.010211
-0.010228
-0.010250
-0.011641
-0.011641
-0.011643
-0.011650
-0.011658
-0.011670
-0.011685
-0.011703
-0.011724
-0.013187
-0.013187
-0.013189
-0.013195
-0.013203
-0.013215
-0.013229
-0.013246
-0.013268
-0.014803
-0.014803
-0.014805
-0.014810
-0.014817
-0.014830
-0.014843
-0.014860
-0.014881
-0.016488
-0.016488
-0.016490
-0.016494
-0.016502
-0.016513
-0.016526
-0.016543
-0.016563
-0.018243
-0.018242
-0.018244
-0.018247
-0.018254
-0.018265
-0.018278
-0.018294
-0.018313
-0.020066
-0.020063
-0.020065
-0.020069
-0.020076
-0.020086
-0.020099
-0.020114
-0.020133
-0.021956
-0.021954
-0.021954
-0.021958
-0.021965
-0.021975
-0.021986
-0.022002
-0.022020
-0.023913
-0.023911
-0.023911
-0.023915
-0.023920
-0.023929
-0.023941
-0.023956
-0.023974
-0.025937
-0.025934
-0.025934
-0.025937
-0.025943
-0.025951
-0.025962
-0.025976
-0.025993
-0.028026
-0.028023
-0.028023
-0.028026
-0.028031
-0.028038
-0.028049
-0.028063
-0.028079
-0.030180
-0.030177
-0.030176
-0.030177
-0.030182
-0.030190
-0.030200
-0.030213
-0.030230
-0.032397
-0.032393
-0.032391
-0.032393
-0.032398
-0.032404
-0.032414
-0.032427
-0.032442
-0.034677
-0.034672
-0.034670
-0.034671
-0.034676
-0.034682
-0.034692
-0.034703
-0.034718
-0.037018
-0.037013
-0.037010
-0.037011
-0.037014
-0.037021
-0.037029
-0.037041
-0.037054
-0.039418
-0.039413
-0.039411
-0.039410
-0.039413
-0.039420
-0.039428
-0.039438
-0.039452
-0.041878
-0.041873
-0.041869
-0.041869
-0.041872
-0.041878
-0.041884
-0.041895
-0.041907
-0.044395
-0.044390
-0.044387
-0.044385
-0.044387
-0.044391
-0.044399
-0.044408
-0.044422
-0.046969
-0.046963
-0.046959
-0.046957
-0.046960
-0.046963
-0.046969
-0.046978
-0.046991
-0.049597
-0.049590
-0.049586
-0.049585
-0.049586
-0.049589
-0.049595
-0.049604
-0.049615
-0.052278
-0.052271
-0.052267
-0.052266
-0.052266
-0.052269
-0.052274
-0.052281
-0.052292
-0.055012
-0.055004
-0.055000
-0.054998
-0.054997
-0.054999
-0.055005
-0.055011
-0.055021
-0.057797
-0.057788
-0.057783
-0.057780
-0.057780
-0.057782
-0.057786
-0.057792
-0.057801
-0.060628
-0.060620
-0.060614
-0.060611
-0.060610
-0.060611
-0.060615
-0.060621
-0.060629
-0.063508
-0.063500
-0.063494
-0.063489
-0.063488
-0.063489
-0.063492
-0.063497
-0.063505
-0.066433
-0.066425
-0.066418
-0.066414
-0.066412
-0.066412
-0.066414
-0.066420
-0.066425
-0.069402
-0.069394
-0.069387
-0.069382
-0.069379
-0.069378
-0.069381
-0.069385
-0.069391
-0.072414
-0.072404
-0.072396
-0.072392
-0.072389
-0.072389
-0.072389
-0.072393
-0.072398
-0.075466
-0.075456
-0.075448
-0.075443
-0.075439
-0.075438
-0.075438
-0.075441
-0.075446
-0.078557
-0.078547
-0.078538
-0.078532
-0.078529
-0.078526
-0.078526
-0.078529
-0.078533
-0.081685
-0.081675
-0.081666
-0.081660
-0.081654
-0.081652
-0.081652
-0.081653
-0.081656
-0.084848
-0.084838
-0.084829
-0.084821
-0.084817
-0.084814
-0.084812
-0.084813
-0.084816
-0.088045
-0.088034
-0.088025
-0.088018
-0.088013
-0.088009
-0.088007
-0.088008
-0.088009
-0.091275
-0.091264
-0.091254
-0.091246
-0.091240
-0.091236
-0.091234
-0.091233
-0.091234
-0.094535
-0.094523
-0.094514
-0.094505
-0.094499
-0.094493
-0.094491
-0.094490
-0.094491
-0.097823
-0.097812
-0.097801
-0.097793
-0.097785
-0.097780
-0.097777
-0.097776
-0.097774
-0.101139
-0.101127
-0.101115
-0.101107
-0.101100
-0.101093
-0.101090
-0.101087
-0.101086
-0.104479
-0.104467
-0.104456
-0.104446
-0.104439
-0.104432
-0.104427
-0.104425
-0.104423
-0.107844
-0.107831
-0.107820
-0.107810
-0.107802
-0.107795
-0.107789
-0.107786
-0.107784
-0.111230
-0.111217
-0.111206
-0.111195
-0.111186
-0.111179
-0.111173
-0.111168
-0.111166
-0.114637
-0.114624
-0.114611
-0.114600
-0.114592
-0.114584
-0.114577
-0.114573
-0.114569
-0.118062
-0.118048
-0.118036
-0.118025
-0.118016
-0.118007
-0.118001
-0.117994
-0.117990
-0.121504
-0.121490
-0.121478
-0.121466
-0.121456
-0.121448
-0.121440
-0.121434
-0.121428
-0.124962
-0.124948
-0.124935
-0.124923
-0.124912
-0.124903
-0.124895
-0.124888
-0.124882
-0.128434
-0.128419
-0.128406
-0.128394
-0.128384
-0.128373
-0.128365
-0.128357
-0.128351
-0.131918
-0.131903
-0.131890
-0.131877
-0.131866
-0.131855
-0.131846
-0.131838
-0.131831
-0.135413
-0.135398
-0.135384
-0.135372
-0.135359
-0.135349
-0.135339
-0.135330
-0.135322
-0.138917
-0.138903
-0.138888
-0.138875
-0.138862
-0.138851
-0.138841
-0.138832
-0.138823
-0.142429
-0.142414
-0.142399
-0.142385
-0.142373
-0.142361
-0.142351
-0.142341
-0.142333
-0.145948
-0.145932
-0.145918
-0.145904
-0.145891
-0.145878
-0.145868
-0.145857
-0.145848
-0.149472
-0.149456
-0.149441
-0.149427
-0.149413
-0.149401
-0.149389
-0.149378
-0.149368
-0.152999
-0.152983
-0.152967
-0.152953
-0.152939
-0.152927
-0.152914
-0.152903
-0.152892
-0.156528
-0.156513
-0.156497
-0.156482
-0.156467
-0.156454