# vtk DataFile Version 2.0
Generated volume Mesh
ASCII
DATASET UNSTRUCTURED_GRID
POINTS 891 float
0.005000 0.100000 0.000000
0.005000 0.000000 0.000000
0.005000 0.001250 0.000000
0.005000 0.002500 0.000000
0.005000 0.003750 0.000000
0.005000 0.005000 0.000000
0.005000 0.006250 0.000000
0.005000 0.007500 0.000000
0.005000 0.008750 0.000000
0.005000 0.010000 0.000000
0.005000 0.011250 0.000000
0.005000 0.012500 0.000000
0.005000 0.013750 0.000000
0.005000 0.015000 0.000000
0.005000 0.016250 0.000000
0.005000 0.017500 0.000000
0.005000 0.018750 0.000000
0.005000 0.020000 0.000000
0.005000 0.021250 0.000000
0.005000 0.022500 0.000000
0.005000 0.023750 0.000000
0.005000 0.025000 0.000000
0.005000 0.026250 0.000000
0.005000 0.027500 0.000000
0.005000 0.028750 0.000000
0.005000 0.030000 0.000000
0.005000 0.031250 0.000000
0.005000 0.032500 0.000000
0.005000 0.033750 0.000000
0.005000 0.035000 0.000000
0.005000 0.036250 0.000000
0.005000 0.037500 0.000000
0.005000 0.038750 0.000000
0.005000 0.040000 0.000000
0.005000 0.041250 0.000000
0.005000 0.042500 0.000000
0.005000 0.043750 0.000000
0.005000 0.045000 0.000000
0.005000 0.046250 0.000000
0.005000 0.047500 0.000000
0.005000 0.048750 0.000000
0.005000 0.050000 0.000000
0.005000 0.051250 0.000000
0.005000 0.052500 0.000000
0.005000 0.053750 0.000000
0.005000 0.055000 0.000000
0.005000 0.056250 0.000000
0.005000 0.057500 0.000000
0.005000 0.058750 0.000000
0.005000 0.060000 0.000000
0.005000 0.061250 0.000000
0.005000 0.062500 0.000000
0.005000 0.063750 0.000000
0.005000 0.065000 0.000000
0.005000 0.066250 0.000000
0.005000 0.067500 0.000000
0.005000 0.068750 0.000000
0.005000 0.070000 0.000000
0.005000 0.071250 0.000000
0.005000 0.072500 0.000000
0.005000 0.073750 0.000000
0.005000 0.075000 0.000000
0.005000 0.076250 0.000000
0.005000 0.077500 0.000000
0.005000 0.078750 0.000000
0.005000 0.080000 0.000000
0.005000 0.081250 0.000000
0.005000 0.082500 0.000000
0.005000 0.083750 0.000000
0.005000 0.085000 0.000000
0.005000 0.086250 0.000000
0.005000 0.087500 0.000000
0.005000 0.088750 0.000000
0.005000 0.090000 0.000000
0.005000 0.091250 0.000000
0.005000 0.092500 0.000000
0.005000 0.093750 0.000000
0.005000 0.095000 0.000000
0.005000 0.096250 0.000000
0.005000 0.097500 0.000000
0.005000 0.098750 0.000000
0.000000 0.000000 0.000000
0.000000 0.100000 0.000000
0.000000 0.098750 0.000000
0.000000 0.097500 0.000000
0.000000 0.096250 0.000000
0.000000 0.095000 0.000000
0.000000 0.093750 0.000000
0.000000 0.092500 0.000000
0.000000 0.091250 0.000000
0.000000 0.090000 0.000000
0.000000 0.088750 0.000000
0.000000 0.087500 0.000000
0.000000 0.086250 0.000000
0.000000 0.085000 0.000000
0.000000 0.083750 0.000000
0.000000 0.082500 0.000000
0.000000 0.081250 0.000000
0.000000 0.080000 0.000000
0.000000 0.078750 0.000000
0.000000 0.077500 0.000000
0.000000 0.076250 0.000000
0.000000 0.075000 0.000000
0.000000 0.073750 0.000000
0.000000 0.072500 0.000000
0.000000 0.071250 0.000000
0.000000 0.070000 0.000000
0.000000 0.068750 0.000000
0.000000 0.067500 0.000000
0.000000 0.066250 0.000000
0.000000 0.065000 0.000000
0.000000 0.063750 0.000000
0.000000 0.062500 0.000000
0.000000 0.061250 0.000000
0.000000 0.060000 0.000000
0.000000 0.058750 0.000000
0.000000 0.057500 0.000000
0.000000 0.056250 0.000000
0.000000 0.055000 0.000000
0.000000 0.053750 0.000000
0.000000 0.052500 0.000000
0.000000 0.051250 0.000000
0.000000 0.050000 0.000000
0.000000 0.048750 0.000000
0.000000 0.047500 0.000000
0.000000 0.046250 0.000000
0.000000 0.045000 0.000000
0.000000 0.043750 0.000000
0.000000 0.042500 0.000000
0.000000 0.041250 0.000000
0.000000 0.040000 0.000000
0.000000 0.038750 0.000000
0.000000 0.037500 0.000000
0.000000 0.036250 0.000000
0.000000 0.035000 0.000000
0.000000 0.033750 0.000000
0.000000 0.032500 0.000000
0.000000 0.031250 0.000000
0.000000 0.030000 0.000000
0.000000 0.028750 0.000000
0.000000 0.027500 0.000000
0.000000 0.026250 0.000000
0.000000 0.025000 0.000000
0.000000 0.023750 0.000000
0.000000 0.022500 0.000000
0.000000 0.021250 0.000000
0.000000 0.020000 0.000000
0.000000 0.018750 0.000000
0.000000 0.017500 0.000000
0.000000 0.016250 0.000000
0.000000 0.015000 0.000000
0.000000 0.013750 0.000000
0.000000 0.012500 0.000000
0.000000 0.011250 0.000000
0.000000 0.010000 0.000000
0.000000 0.008750 0.000000
0.000000 0.007500 0.000000
0.000000 0.006250 0.000000
0.000000 0.005000 0.000000
0.000000 0.003750 0.000000
0.000000 0.002500 0.000000
0.000000 0.001250 0.000000
0.000500 0.000000 0.000000
0.001000 0.000000 0.000000
0.001500 0.000000 0.000000
0.002000 0.000000 0.000000
0.002500 0.000000 0.000000
0.003000 0.000000 0.000000
0.003500 0.000000 0.000000
0.004000 0.000000 0.000000
0.004500 0.000000 0.000000
0.004500 0.100000 0.000000
0.004000 0.100000 0.000000
0.003500 0.100000 0.000000
0.003000 0.100000 0.000000
0.002500 0.100000 0.000000
0.002000 0.100000 0.000000
0.001500 0.100000 0.000000
0.001000 0.100000 0.000000
0.000500 0.100000 0.000000
0.000500 0.098750 0.000000
0.001000 0.098750 0.000000
0.001500 0.098750 0.000000
0.002000 0.098750 0.000000
0.002500 0.098750 0.000000
0.003000 0.098750 0.000000
0.003500 0.098750 0.000000
0.004000 0.098750 0.000000
0.004500 0.098750 0.000000
0.000500 0.097500 0.000000
0.001000 0.097500 0.000000
0.001500 0.097500 0.000000
0.002000 0.097500 0.000000
0.002500 0.097500 0.000000
0.003000 0.097500 0.000000
0.003500 0.097500 0.000000
0.004000 0.097500 0.000000
0.004500 0.097500 0.000000
0.000500 0.096250 0.000000
0.001000 0.096250 0.000000
0.001500 0.096250 0.000000
0.002000 0.096250 0.000000
0.002500 0.096250 0.000000
0.003000 0.096250 0.000000
0.003500 0.096250 0.000000
0.004000 0.096250 0.000000
0.004500 0.096250 0.000000
0.000500 0.095000 0.000000
0.001000 0.095000 0.000000
0.001500 0.095000 0.000000
0.002000 0.095000 0.000000
0.002500 0.095000 0.000000
0.003000 0.095000 0.000000
0.003500 0.095000 0.000000
0.004000 0.095000 0.000000
0.004500 0.095000 0.000000
0.000500 0.093750 0.000000
0.001000 0.093750 0.000000
0.001500 0.093750 0.000000
0.002000 0.093750 0.000000
0.002500 0.093750 0.000000
0.003000 0.093750 0.000000
0.003500 0.093750 0.000000
0.004000 0.093750 0.000000
0.004500 0.093750 0.000000
0.000500 0.092500 0.000000
0.001000 0.092500 0.000000
0.001500 0.092500 0.000000
0.002000 0.092500 0.000000
0.002500 0.092500 0.000000
0.003000 0.092500 0.000000
0.003500 0.092500 0.000000
0.004000 0.092500 0.000000
0.004500 0.092500 0.000000
0.000500 0.091250 0.000000
0.001000 0.091250 0.000000
0.001500 0.091250 0.000000
0.002000 0.091250 0.000000
0.002500 0.091250 0.000000
0.003000 0.091250 0.000000
0.003500 0.091250 0.000000
0.004000 0.091250 0.000000
0.004500 0.091250 0.000000
0.000500 0.090000 0.000000
0.001000 0.090000 0.000000
0.001500 0.090000 0.000000
0.002000 0.090000 0.000000
0.002500 0.090000 0.000000
0.003000 0.090000 0.000000
0.003500 0.090000 0.000000
0.004000 0.090000 0.000000
0.004500 0.090000 0.000000
0.000500 0.088750 0.000000
0.001000 0.088750 0.000000
0.001500 0.088750 0.000000
0.002000 0.088750 0.000000
0.002500 0.088750 0.000000
0.003000 0.088750 0.000000
0.003500 0.088750 0.000000
0.004000 0.088750 0.000000
0.004500 0.088750 0.000000
0.000500 0.087500 0.000000
0.001000 0.087500 0.000000
0.001500 0.087500 0.000000
0.002000 0.087500 0.000000
0.002500 0.087500 0.000000
0.003000 0.087500 0.000000
0.003500 0.087500 0.000000
0.004000 0.087500 0.000000
0.004500 0.087500 0.000000
0.000500 0.086250 0.000000
0.001000 0.086250 0.000000
0.001500 0.086250 0.000000
0.002000 0.086250 0.000000
0.002500 0.086250 0.000000
0.003000 0.086250 0.000000
0.003500 0.086250 0.000000
0.004000 0.086250 0.000000
0.004500 0.086250 0.000000
0.000500 0.085000 0.000000
0.001000 0.085000 0.000000
0.001500 0.085000 0.000000
0.002000 0.085000 0.000000
0.002500 0.085000 0.000000
0.003000 0.085000 0.000000
0.003500 0.085000 0.000000
0.004000 0.085000 0.000000
0.004500 0.085000 0.000000
0.000500 0.083750 0.000000
0.001000 0.083750 0.000000
0.001500 0.083750 0.000000
0.002000 0.083750 0.000000
0.002500 0.083750 0.000000
0.003000 0.083750 0.000000
0.003500 0.083750 0.000000
0.004000 0.083750 0.000000
0.004500 0.083750 0.000000
0.000500 0.082500 0.000000
0.001000 0.082500 0.000000
0.001500 0.082500 0.000000
0.002000 0.082500 0.000000
0.002500 0.082500 0.000000
0.003000 0.082500 0.000000
0.003500 0.082500 0.000000
0.004000 0.082500 0.000000
0.004500 0.082500 0.000000
0.000500 0.081250 0.000000
0.001000 0.081250 0.000000
0.001500 0.081250 0.000000
0.002000 0.081250 0.000000
0.002500 0.081250 0.000000
0.003000 0.081250 0.000000
0.003500 0.081250 0.000000
0.004000 0.081250 0.000000
0.004500 0.081250 0.000000
0.000500 0.080000 0.000000
0.001000 0.080000 0.000000
0.001500 0.080000 0.000000
0.002000 0.080000 0.000000
0.002500 0.080000 0.000000
0.003000 0.080000 0.000000
0.003500 0.080000 0.000000
0.004000 0.080000 0.000000
0.004500 0.080000 0.000000
0.000500 0.078750 0.000000
0.001000 0.078750 0.000000
0.001500 0.078750 0.000000
0.002000 0.078750 0.000000
0.002500 0.078750 0.000000
0.003000 0.078750 0.000000
0.003500 0.078750 0.000000
0.004000 0.078750 0.000000
0.004500 0.078750 0.000000
0.000500 0.077500 0.000000
0.001000 0.077500 0.000000
0.001500 0.077500 0.000000
0.002000 0.077500 0.000000
0.002500 0.077500 0.000000
0.003000 0.077500 0.000000
0.003500 0.077500 0.000000
0.004000 0.077500 0.000000
0.004500 0.077500 0.000000
0.000500 0.076250 0.000000
0.001000 0.076250 0.000000
0.001500 0.076250 0.000000
0.002000 0.076250 0.000000
0.002500 0.076250 0.000000
0.003000 0.076250 0.000000
0.003500 0.076250 0.000000
0.004000 0.076250 0.000000
0.004500 0.076250 0.000000
0.000500 0.075000 0.000000
0.001000 0.075000 0.000000
0.001500 0.075000 0.000000
0.002000 0.075000 0.000000
0.002500 0.075000 0.000000
0.003000 0.075000 0.000000
0.003500 0.075000 0.000000
0.004000 0.075000 0.000000
0.004500 0.075000 0.000000
0.000500 0.073750 0.000000
0.001000 0.073750 0.000000
0.001500 0.073750 0.000000
0.002000 0.073750 0.000000
0.002500 0.073750 0.000000
0.003000 0.073750 0.000000
[...]
POINT_DATA 891
SCALARS u1 float
LOOKUP_TABLE default
-7e-17
-3e-07
-3e-07
-3e-07
-3e-07
-3e-07
-3e-07
-3e-07
-3e-07
-3e-07
-3e-07
-3e-07
-3e-07
-3e-07
-3e-07
-3e-07
-3e-07
-3e-07
-3e-07
-3e-07
-3e-07
-3e-07
-3e-07
-3e-07
-3e-07
-3e-07
-3e-07
-3e-07
-3e-07
-3e-07
-3e-07
-3e-07
-3e-07
-3e-07
-3e-07
-3e-07
-3e-07
-3e-07
-3e-07
-3e-07
-3e-07
-3e-07
-3e-07
-3e-07
-3e-07
-3e-07
-3e-07
-3e-07
-3e-07
-3e-07
-3e-07
-3e-07
-3e-07
-3e-07
-3e-07
-3e-07
-3e-07
-3e-07
-3e-07
-3e-07
-3e-07
-3e-07
-3e-07
-3e-07
-3e-07
-3e-07
-3e-07
-3e-07
-3e-07
-3e-07
-3e-07
-3e-07
-3e-07
-3e-07
-3e-07
-3e-07
-3e-07
-3e-07
-3e-07
-2e-07
-2e-07
3e-07
1e-16
2e-07
2e-07
3e-07
3e-07
3e-07
3e-07
3e-07
3e-07
3e-07
3e-07
3e-07
3e-07
3e-07
3e-07
3e-07
3e-07
3e-07
3e-07
3e-07
3e-07
3e-07
3e-07
3e-07
3e-07
3e-07
3e-07
3e-07
3e-07
3e-07
3e-07
3e-07
3e-07
3e-07
3e-07
3e-07
3e-07
3e-07
3e-07
3e-07
3e-07
3e-07
3e-07
3e-07
3e-07
3e-07
3e-07
3e-07
3e-07
3e-07
3e-07
3e-07
3e-07
3e-07
3e-07
3e-07
3e-07
3e-07
3e-07
3e-07
3e-07
3e-07
3e-07
3e-07
3e-07
3e-07
3e-07
3e-07
3e-07
3e-07
3e-07
3e-07
3e-07
3e-07
3e-07
3e-07
3e-07
3e-07
3e-07
3e-07
2e-07
2e-07
1e-07
5e-08
7e-15
-5e-08
-1e-07
-2e-07
-2e-07
-4e-16
-2e-16
2e-16
4e-16
1e-16
-1e-16
-1e-16
-1e-17
1e-16
1e-07
1e-07
6e-08
3e-08
-9e-15
-3e-08
-6e-08
-1e-07
-1e-07
2e-07
1e-07
1e-07
5e-08
-4e-14
-5e-08
-1e-07
-1e-07
-2e-07
2e-07
2e-07
1e-07
5e-08
-3e-14
-5e-08
-1e-07
-2e-07
-2e-07
2e-07
2e-07
1e-07
5e-08
-2e-14
-5e-08
-1e-07
-2e-07
-2e-07
2e-07
2e-07
1e-07
5e-08
-2e-14
-5e-08
-1e-07
-2e-07
-2e-07
2e-07
2e-07
1e-07
5e-08
-1e-14
-5e-08
-1e-07
-2e-07
-2e-07
2e-07
2e-07
1e-07
5e-08
-5e-15
-5e-08
-1e-07
-2e-07
-2e-07
2e-07
2e-07
1e-07
5e-08
-1e-15
-5e-08
-1e-07
-2e-07
-2e-07
2e-07
2e-07
1e-07
5e-08
1e-15
-5e-08
-1e-07
-2e-07
-2e-07
2e-07
2e-07
1e-07
5e-08
3e-15
-5e-08
-1e-07
-2e-07
-2e-07
2e-07
2e-07
1e-07
5e-08
5e-15
-5e-08
-1e-07
-2e-07
-2e-07
2e-07
2e-07
1e-07
5e-08
6e-15
-5e-08
-1e-07
-2e-07
-2e-07
2e-07
2e-07
1e-07
5e-08
6e-15
-5e-08
-1e-07
-2e-07
-2e-07
2e-07
2e-07
1e-07
5e-08
7e-15
-5e-08
-1e-07
-2e-07
-2e-07
2e-07
2e-07
1e-07
5e-08
7e-15
-5e-08
-1e-07
-2e-07
-2e-07
2e-07
2e-07
1e-07
5e-08
7e-15
-5e-08
-1e-07
-2e-07
-2e-07
2e-07
2e-07
1e-07
5e-08
7e-15
-5e-08
-1e-07
-2e-07
-2e-07
2e-07
2e-07
1e-07
5e-08
7e-15
-5e-08
-1e-07
-2e-07
-2e-07
2e-07
2e-07
1e-07
5e-08
7e-15
-5e-08
-1e-07
-2e-07
-2e-07
2e-07
2e-07
1e-07
5e-08
7e-15
-5e-08
-1e-07
-2e-07
-2e-07
2e-07
2e-07
1e-07
5e-08
7e-15
-5e-08
-1e-07
-2e-07
-2e-07
2e-07
2e-07
1e-07
5e-08
7e-15
-5e-08
-1e-07
-2e-07
-2e-07
2e-07
2e-07
1e-07
5e-08
7e-15
-5e-08
-1e-07
-2e-07
-2e-07
2e-07
2e-07
1e-07
5e-08
7e-15
-5e-08
-1e-07
-2e-07
-2e-07
2e-07
2e-07
1e-07
5e-08
7e-15
-5e-08
-1e-07
-2e-07
-2e-07
2e-07
2e-07
1e-07
5e-08
7e-15
-5e-08
-1e-07
-2e-07
-2e-07
2e-07
2e-07
1e-07
5e-08
7e-15
-5e-08
-1e-07
-2e-07
-2e-07
2e-07
2e-07
1e-07
5e-08
7e-15
-5e-08
-1e-07
-2e-07
-2e-07
2e-07
2e-07
1e-07
5e-08
7e-15
-5e-08
-1e-07
-2e-07
-2e-07
2e-07
2e-07
1e-07
5e-08
7e-15
-5e-08
-1e-07
-2e-07
-2e-07
2e-07
2e-07
1e-07
5e-08
7e-15
-5e-08
-1e-07
-2e-07
-2e-07
2e-07
2e-07
1e-07
5e-08
7e-15
-5e-08
-1e-07
-2e-07
-2e-07
2e-07
2e-07
1e-07
5e-08
7e-15
-5e-08
-1e-07
-2e-07
-2e-07
2e-07
2e-07
1e-07
5e-08
7e-15
-5e-08
-1e-07
-2e-07
-2e-07
2e-07
2e-07
1e-07
5e-08
7e-15
-5e-08
-1e-07
-2e-07
-2e-07
2e-07
2e-07
1e-07
5e-08
7e-15
-5e-08
-1e-07
-2e-07
-2e-07
2e-07
2e-07
1e-07
5e-08
7e-15
-5e-08
-1e-07
-2e-07
-2e-07
2e-07
2e-07
1e-07
5e-08
7e-15
-5e-08
-1e-07
-2e-07
-2e-07
2e-07
2e-07
1e-07
5e-08
7e-15
-5e-08
-1e-07
-2e-07
-2e-07
2e-07
2e-07
1e-07
5e-08
7e-15
-5e-08
-1e-07
-2e-07
-2e-07
2e-07
2e-07
1e-07
5e-08
7e-15
-5e-08
-1e-07
-2e-07
-2e-07
2e-07
2e-07
1e-07
5e-08
7e-15
-5e-08
-1e-07
-2e-07
-2e-07
2e-07
2e-07
1e-07
5e-08
7e-15
-5e-08
-1e-07
-2e-07
-2e-07
2e-07
2e-07
1e-07
5e-08
7e-15
-5e-08
-1e-07
-2e-07
-2e-07
2e-07
2e-07
1e-07
5e-08
7e-15
-5e-08
-1e-07
-2e-07
-2e-07
2e-07
2e-07
1e-07
5e-08
7e-15
-5e-08
-1e-07
-2e-07
-2e-07
2e-07
2e-07
1e-07
5e-08
7e-15
-5e-08
-1e-07
-2e-07
-2e-07
2e-07
2e-07
1e-07
5e-08
7e-15
-5e-08
-1e-07
-2e-07
-2e-07
2e-07
2e-07
1e-07
5e-08
7e-15
-5e-08
-1e-07
-2e-07
-2e-07
2e-07
2e-07
1e-07
5e-08
7e-15
-5e-08
-1e-07
-2e-07
-2e-07
2e-07
2e-07
1e-07
5e-08
7e-15
-5e-08
-1e-07
-2e-07
-2e-07
2e-07
2e-07
1e-07
5e-08
7e-15
-5e-08
-1e-07
-2e-07
-2e-07
2e-07
2e-07
1e-07
5e-08
7e-15
-5e-08
-1e-07
-2e-07
-2e-07
2e-07
2e-07
1e-07
5e-08
7e-15
-5e-08
-1e-07
-2e-07
-2e-07
2e-07
2e-07
1e-07
5e-08
7e-15
-5e-08
-1e-07
-2e-07
-2e-07
2e-07
2e-07
1e-07
5e-08
7e-15
-5e-08
-1e-07
-2e-07
-2e-07
2e-07
2e-07
1e-07
5e-08
7e-15
-5e-08
-1e-07
-2e-07
-2e-07
2e-07
2e-07
1e-07
5e-08
7e-15
-5e-08
-1e-07
-2e-07
-2e-07
2e-07
2e-07
1e-07
5e-08
7e-15
-5e-08
-1e-07
-2e-07
-2e-07
2e-07
2e-07
1e-07
5e-08
7e-15
-5e-08
-1e-07
-2e-07
-2e-07
2e-07
2e-07
1e-07
5e-08
7e-15
-5e-08
-1e-07
-2e-07
-2e-07
2e-07
2e-07
1e-07
5e-08
7e-15
-5e-08
-1e-07
-2e-07
-2e-07
2e-07
2e-07
1e-07
5e-08
7e-15
-5e-08
-1e-07
-2e-07
-2e-07
2e-07
2e-07
1e-07
5e-08
7e-15
-5e-08
-1e-07
-2e-07
-2e-07
2e-07
2e-07
1e-07
5e-08
7e-15
-5e-08
-1e-07
-2e-07
-2e-07
2e-07
2e-07
1e-07
5e-08
7e-15
-5e-08
-1e-07
-2e-07
-2e-07
2e-07
2e-07
1e-07
5e-08
7e-15
-5e-08
-1e-07
-2e-07
-2e-07
2e-07
2e-07
1e-07
5e-08
7e-15
-5e-08
-1e-07
-2e-07
-2e-07
2e-07
2e-07
1e-07
5e-08
7e-15
-5e-08
-1e-07
-2e-07
-2e-07
2e-07
2e-07
1e-07
5e-08
7e-15
-5e-08
-1e-07
-2e-07
-2e-07
2e-07
2e-07
1e-07
5e-08
7e-15
-5e-08
-1e-07
-2e-07
-2e-07
2e-07
2e-07
1e-07
5e-08
7e-15
-5e-08
-1e-07
-2e-07
-2e-07
2e-07
2e-07
1e-07
5e-08
7e-15
-5e-08
-1e-07
-2e-07
-2e-07
2e-07
2e-07
1e-07
5e-08
7e-15
-5e-08
-1e-07
-2e-07
-2e-07
2e-07
2e-07
1e-07
5e-08
7e-15
-5e-08
-1e-07
-2e-07
-2e-07
2e-07
2e-07
1e-07
5e-08
7e-15
-5e-08
-1e-07
-2e-07
-2e-07
2e-07
2e-07
1e-07
5e-08
7e-15
-5e-08
-1e-07
-2e-07
-2e-07
2e-07
2e-07
1e-07
5e-08
7e-15
-5e-08
-1e-07
-2e-07
-2e-07
2e-07
2e-07
1e-07
5e-08
7e-15
-5e-08
-1e-07
-2e-07
-2e-07
SCALARS u2 float
LOOKUP_TABLE default
2e-16
-5e-05
-5e-05
-5e-05
-5e-05
-5e-05
-5e-05
-5e-05
-5e-05
-5e-05
-5e-05
-5e-05
-5e-05
-5e-05
-5e-05
-4e-05
-4e-05
-4e-05
-4e-05
-4e-05
-4e-05
-4e-05
-4e-05
-4e-05
-4e-05
-4e-05
-4e-05
-4e-05
-4e-05
-4e-05
-3e-05
-3e-05
-3e-05
-3e-05
-3e-05
-3e-05
-3e-05
-3e-05
-3e-05
-3e-05
-3e-05
-3e-05
-3e-05
-3e-05
-3e-05
-2e-05
-2e-05
-2e-05
-2e-05
-2e-05
-2e-05
-2e-05
-2e-05
-2e-05
-2e-05
-2e-05
-2e-05
-2e-05
-2e-05
-1e-05
-1e-05
-1e-05
-1e-05
-1e-05
-1e-05
-1e-05
-1e-05
-1e-05
-9e-06
-8e-06
-7e-06
-7e-06
-6e-06
-5e-06
-5e-06
-4e-06
-3e-06
-3e-06
-2e-06
-1e-06
-7e-07
-5e-05
5e-17
-7e-07
-1e-06
-2e-06
-3e-06
-3e-06
-4e-06
-5e-06
-5e-06
-6e-06
-7e-06
-7e-06
-8e-06
-9e-06
-1e-05
-1e-05
-1e-05
-1e-05
-1e-05
-1e-05
-1e-05
-1e-05
-1e-05
-2e-05
-2e-05
-2e-05
-2e-05
-2e-05
-2e-05
-2e-05
-2e-05
-2e-05
-2e-05
-2e-05
-2e-05
-2e-05
-2e-05
-3e-05
-3e-05
-3e-05
-3e-05
-3e-05
-3e-05
-3e-05
-3e-05
-3e-05
-3e-05
-3e-05
-3e-05
-3e-05
-3e-05
-3e-05
-4e-05
-4e-05
-4e-05
-4e-05
-4e-05
-4e-05
-4e-05
-4e-05
-4e-05
-4e-05
-4e-05
-4e-05
-4e-05
-4e-05
-4e-05
-5e-05
-5e-05
-5e-05
-5e-05
-5e-05
-5e-05
-5e-05
-5e-05
-5e-05
-5e-05
-5e-05
-5e-05
-5e-05
-5e-05
-5e-05
-5e-05
-5e-05
-5e-05
-5e-05
-5e-05
-5e-05
-5e-05
7e-16
-2e-17
-2e-16
-5e-17
-9e-18
8e-17
6e-17
-2e-16
1e-16
-7e-07
-7e-07
-6e-07
-6e-07
-6e-07
-6e-07
-6e-07
-7e-07
-7e-07
-1e-06
-1e-06
-1e-06
-1e-06
-1e-06
-1e-06
-1e-06
-1e-06
-1e-06
-2e-06
-2e-06
-2e-06
-2e-06
-2e-06
-2e-06
-2e-06
-2e-06
-2e-06
-3e-06
-3e-06
-3e-06
-3e-06
-3e-06
-3e-06
-3e-06
-3e-06
-3e-06
-3e-06
-3e-06
-3e-06
-3e-06
-3e-06
-3e-06
-3e-06
-3e-06
-3e-06
-4e-06
-4e-06
-4e-06
-4e-06
-4e-06
-4e-06
-4e-06
-4e-06
-4e-06
-5e-06
-5e-06
-5e-06
-5e-06
-5e-06
-5e-06
-5e-06
-5e-06
-5e-06
-5e-06
-5e-06
-5e-06
-5e-06
-5e-06
-5e-06
-5e-06
-5e-06
-5e-06
-6e-06
-6e-06
-6e-06
-6e-06
-6e-06
-6e-06
-6e-06
-6e-06
-6e-06
-7e-06
-7e-06
-7e-06
-7e-06
-7e-06
-7e-06
-7e-06
-7e-06
-7e-06
-7e-06
-7e-06
-7e-06
-7e-06
-7e-06
-7e-06
-7e-06
-7e-06
-7e-06
-8e-06
-8e-06
-8e-06
-8e-06
-8e-06
-8e-06
-8e-06
-8e-06
-8e-06
-9e-06
-9e-06
-9e-06
-9e-06
-9e-06
-9e-06
-9e-06
-9e-06
-9e-06
-1e-05
-1e-05
-1e-05
-1e-05
-1e-05
-1e-05
-1e-05
-1e-05
-1e-05
-1e-05
-1e-05
-1e-05
-1e-05
-1e-05
-1e-05
-1e-05
-1e-05
-1e-05
-1e-05
-1e-05
-1e-05
-1e-05
-1e-05
-1e-05
-1e-05
-1e-05
-1e-05
-1e-05
-1e-05
-1e-05
-1e-05
-1e-05
-1e-05
-1e-05
-1e-05
-1e-05
-1e-05
-1e-05
-1e-05
-1e-05
-1e-05
-1e-05
-1e-05
-1e-05
-1e-05
-1e-05
-1e-05
-1e-05
-1e-05
-1e-05
-1e-05
-1e-05
-1e-05
-1e-05
-1e-05
-1e-05
-1e-05
-1e-05
-1e-05
-1e-05
-1e-05
-1e-05
-1e-05
-1e-05
-1e-05
-1e-05
-1e-05
-1e-05
-1e-05
-1e-05
-1e-05
-1e-05
-1e-05
-1e-05
-1e-05
-1e-05
-1e-05
-1e-05
-1e-05
-1e-05
-1e-05
-2e-05
-2e-05
-2e-05
-2e-05
-2e-05
-2e-05
-2e-05
-2e-05
-2e-05
-2e-05
-2e-05
-2e-05
-2e-05
-2e-05
-2e-05
-2e-05
-2e-05
-2e-05
-2e-05
-2e-05
-2e-05
-2e-05
-2e-05
-2e-05
-2e-05
-2e-05
-2e-05
-2e-05
-2e-05
-2e-05
-2e-05
-2e-05
-2e-05
-2e-05
-2e-05
-2e-05
-2e-05
-2e-05
-2e-05
-2e-05
-2e-05
-2e-05
-2e-05
-2e-05
-2e-05
-2e-05
-2e-05
-2e-05
-2e-05
-2e-05
-2e-05
-2e-05
-2e-05
-2e-05
-2e-05
-2e-05
-2e-05
-2e-05
-2e-05
-2e-05
-2e-05
-2e-05
-2e-05
-2e-05
-2e-05
-2e-05
-2e-05
-2e-05
-2e-05
-2e-05
-2e-05
-2e-05
-2e-05
-2e-05
-2e-05
-2e-05
-2e-05
-2e-05
-2e-05
-2e-05
-2e-05
-2e-05
-2e-05
-2e-05
-2e-05
-2e-05
-2e-05
-2e-05
-2e-05
-2e-05
-2e-05
-2e-05
-2e-05
-2e-05
-2e-05
-2e-05
-2e-05
-2e-05
-2e-05
-2e-05
-2e-05
-2e-05
-2e-05
-2e-05
-2e-05
-2e-05
-2e-05
-2e-05
-2e-05
-2e-05
-2e-05
-2e-05
-2e-05
-2e-05
-2e-05
-2e-05
-2e-05
-2e-05
-2e-05
-2e-05
-2e-05
-2e-05
-2e-05
-2e-05
-2e-05
-2e-05
-3e-05
-3e-05
-3e-05
-3e-05
-3e-05
-3e-05
-3e-05
-3e-05
-3e-05
-3e-05
-3e-05
-3e-05
-3e-05
-3e-05
-3e-05
-3e-05
-3e-05
-3e-05
-3e-05
-3e-05
-3e-05
-3e-05
-3e-05
-3e-05
-3e-05
-3e-05
-3e-05
-3e-05
-3e-05
-3e-05
-3e-05
-3e-05
-3e-05
-3e-05
-3e-05
-3e-05
-3e-05
-3e-05
-3e-05
-3e-05
-3e-05
-3e-05
-3e-05
-3e-05
-3e-05
-3e-05
-3e-05
-3e-05
-3e-05
-3e-05
-3e-05
-3e-05
-3e-05
-3e-05
-3e-05
-3e-05
-3e-05
-3e-05
-3e-05
-3e-05
-3e-05
-3e-05
-3e-05
-3e-05
-3e-05
-3e-05
-3e-05
-3e-05
-3e-05
-3e-05
-3e-05
-3e-05
-3e-05
-3e-05
-3e-05
-3e-05
-3e-05
-3e-05
-3e-05
-3e-05
-3e-05
-3e-05
-3e-05
-3e-05
-3e-05
-3e-05
-3e-05
-3e-05
-3e-05
-3e-05
-3e-05
-3e-05
-3e-05
-3e-05
-3e-05
-3e-05
-3e-05
-3e-05
-3e-05
-3e-05
-3e-05
-3e-05
-3e-05
-3e-05
-3e-05
-3e-05
-3e-05
-3e-05
-3e-05
-3e-05
-3e-05
-3e-05
-3e-05
-3e-05
-3e-05
-3e-05
-3e-05
-3e-05
-3e-05
-3e-05
-3e-05
-3e-05
-3e-05
-3e-05
-3e-05
-3e-05
-3e-05
-3e-05
-3e-05
-3e-05
-3e-05
-3e-05
-3e-05
-3e-05
-3e-05
-4e-05
-4e-05
-4e-05
-4e-05
-4e-05
-4e-05
-4e-05
-4e-05
-4e-05
-4e-05
-4e-05
-4e-05
-4e-05
-4e-05
-4e-05
-4e-05
-4e-05
-4e-05
-4e-05
-4e-05
-4e-05
-4e-05
-4e-05
-4e-05
-4e-05
-4e-05
-4e-05
-4e-05
-4e-05
-4e-05
-4e-05
-4e-05
-4e-05
-4e-05
-4e-05
-4e-05
-4e-05
-4e-05
-4e-05
-4e-05
-4e-05
-4e-05
-4e-05
-4e-05
-4e-05
-4e-05
-4e-05
-4e-05
-4e-05
-4e-05
-4e-05
-4e-05
-4e-05
-4e-05
-4e-05
-4e-05
-4e-05
-4e-05
-4e-05
-4e-05
-4e-05
-4e-05
-4e-05
-4e-05
-4e-05
-4e-05
-4e-05
-4e-05
-4e-05
-4e-05
-4e-05
-4e-05
-4e-05
-4e-05
-4e-05
-4e-05
-4e-05
-4e-05
-4e-05
-4e-05
-4e-05
-4e-05
-4e-05
-4e-05
-4e-05
-4e-05
-4e-05
-4e-05
-4e-05
-4e-05
-4e-05
-4e-05
-4e-05
-4e-05
-4e-05
-4e-05
-4e-05
-4e-05
-4e-05
-4e-05
-4e-05
-4e-05
-4e-05
-4e-05
-4e-05
-4e-05
-4e-05
-4e-05
-4e-05
-4e-05
-4e-05
-4e-05
-4e-05
-4e-05
-4e-05
-4e-05
-4e-05
-4e-05
-4e-05
-4e-05
-4e-05
-4e-05
-4e-05
-4e-05
-4e-05
-4e-05
-4e-05
-4e-05
-4e-05
-4e-05
-4e-05
-4e-05
-4e-05
-4e-05
-4e-05
-5e-05
-5e-05
-5e-05
-5e-05
-5e-05
-5e-05
-5e-05
-5e-05
-5e-05
-5e-05
-5e-05
-5e-05
-5e-05
-5e-05
-5e-05
-5e-05
-5e-05
-5e-05
-5e-05
-5e-05
-5e-05
-5e-05
-5e-05
-5e-05
-5e-05
-5e-05
-5e-05
-5e-05
-5e-05
-5e-05
-5e-05
-5e-05
-5e-05
-5e-05
-5e-05
-5e-05
-5e-05
-5e-05
-5e-05
-5e-05
-5e-05
-5e-05
-5e-05
-5e-05
-5e-05
-5e-05
-5e-05
-5e-05
-5e-05
-5e-05
-5e-05
-5e-05
-5e-05
-5e-05
-5e-05
-5e-05
-5e-05
-5e-05
-5e-05
-5e-05
-5e-05
-5e-05
-5e-05
-5e-05
-5e-05
-5e-05
-5e-05
-5e-05
-5e-05
-5e-05
-5e-05
-5e-05
-5e-05
-5e-05
-5e-05
-5e-05
-5e-05
-5e-05
-5e-05
-5e-05
-5e-05
-5e-05
-5e-05
-5e-05
-5e-05
-5e-05
-5e-05
-5e-05
-5e-05
-5e-05
-5e-05
-5e-05
-5e-05
-5e-05
-5e-05
-5e-05
-5e-05
-5e-05
-5e-05
-5e-05
-5e-05
-5e-05
-5e-05
-5e-05
-5e-05
-5e-05
-5e-05
-5e-05
-5e-05
-5e-05
-5e-05
-5e-05
-5e-05
-5e-05
-5e-05
-5e-05
-5e-05
SCALARS strain_1 float
LOOKUP_TABLE default
-0.000019
-0.029858
-0.029406
-0.028952
-0.028497
-0.028039
-0.027579
-0.027117
-0.026654
-0.026189
-0.025722
-0.025255
-0.024785
-0.024315
-0.023844
-0.023372
-0.022899
-0.022426
-0.021953
-0.021479
-0.021005
-0.020532
-0.020058
-0.019586
-0.019113
-0.018642
-0.018172
-0.017703
-0.017236
-0.016770
-0.016306
-0.015845
-0.015385
-0.014928
-0.014474
-0.014023
-0.013575
-0.013130
-0.012689
-0.012252
-0.011819
-0.011390
-0.010966
-0.010546
-0.010132
-0.009722
-0.009319
-0.008920
-0.008528
-0.008142
-0.007762
-0.007389
-0.007023
-0.006663
-0.006311
-0.005966
-0.005629
-0.005299
-0.004977
-0.004663
-0.004358
-0.004061
-0.003772
-0.003492
-0.003221
-0.002959
-0.002706
-0.002461
-0.002226
-0.002001
-0.001784
-0.001577
-0.001379
-0.001191
-0.001012
-0.000842
-0.000682
-0.000531
-0.000389
-0.000257
-0.000133
-0.029884
-0.000001
-0.000115
-0.000239
-0.000372
-0.000514
-0.000665
-0.000826
-0.000996
-0.001176
-0.001365
-0.001563
-0.001771
-0.001988
-0.002214
-0.002450
-0.002694
-0.002948
-0.003211
-0.003483
-0.003763
-0.004053
-0.004350
-0.004657
-0.004971
-0.005293
-0.005624
-0.005962
-0.006307
-0.006660
-0.007021
-0.007388
-0.007762
-0.008142
-0.008529
-0.008922
-0.009321
-0.009725
-0.010135
-0.010550
-0.010970
-0.011395
-0.011825
-0.012258
-0.012696
-0.013138
-0.013583
-0.014032
-0.014484
-0.014939
-0.015396
-0.015857
-0.016319
-0.016783
-0.017250
-0.017718
-0.018187
-0.018658
-0.019130
-0.019602
-0.020076
-0.020550
-0.021024
-0.021498
-0.021972
-0.022446
-0.022920
-0.023393
-0.023865
-0.024337
-0.024808
-0.025277
-0.025746
-0.026213
-0.026678
-0.027142
-0.027604
-0.028064
-0.028522
-0.028978
-0.029432
-0.029882
-0.029879
-0.029876
-0.029874
-0.029871
-0.029869
-0.029866
-0.029863
-0.029860
-0.000015
-0.000012
-0.000009
-0.000007
-0.000005
-0.000003
-0.000002
-0.000001
-0.000001
-0.000115
-0.000116
-0.000117
-0.000118
-0.000119
-0.000121
-0.000124
-0.000126
-0.000129
-0.000239
-0.000239
-0.000240
-0.000241
-0.000243
-0.000245
-0.000247
-0.000250
-0.000253
-0.000372
-0.000372
-0.000373
-0.000374
-0.000376
-0.000377
-0.000380
-0.000382
-0.000385
-0.000514
-0.000514
-0.000515
-0.000516
-0.000517
-0.000519
-0.000521
-0.000524
-0.000527
-0.000665
-0.000666
-0.000666
-0.000667
-0.000669
-0.000670
-0.000673
-0.000675
-0.000678
-0.000826
-0.000826
-0.000827
-0.000828
-0.000829
-0.000831
-0.000833
-0.000836
-0.000839
-0.000996
-0.000996
-0.000997
-0.000998
-0.000999
-0.001001
-0.001003
-0.001005
-0.001008
-0.001175
-0.001176
-0.001176
-0.001177
-0.001178
-0.001180
-0.001182
-0.001184
-0.001187
-0.001364
-0.001364
-0.001365
-0.001366
-0.001367
-0.001368
-0.001371
-0.001373
-0.001376
-0.001563
-0.001563
-0.001563
-0.001564
-0.001565
-0.001566
-0.001568
-0.001571
-0.001574
-0.001770
-0.001770
-0.001770
-0.001771
-0.001772
-0.001774
-0.001776
-0.001778
-0.001781
-0.001987
-0.001987
-0.001987
-0.001988
-0.001989
-0.001991
-0.001992
-0.001995
-0.001998
-0.002213
-0.002213
-0.002213
-0.002214
-0.002215
-0.002217
-0.002218
-0.002221
-0.002223
-0.002449
-0.002449
-0.002449
-0.002450
-0.002451
-0.002452
-0.002454
-0.002456
-0.002458
-0.002694
-0.002693
-0.002693
-0.002694
-0.002695
-0.002696
-0.002698
-0.002700
-0.002703
-0.002948
-0.002947
-0.002947
-0.002948
-0.002949
-0.002950
-0.002952
-0.002954
-0.002956
-0.003210
-0.003210
-0.003210
-0.003210
-0.003211
-0.003212
-0.003214
-0.003216
-0.003218
-0.003482
-0.003482
-0.003482
-0.003482
-0.003483
-0.003484
-0.003485
-0.003487
-0.003490
-0.003763
-0.003762
-0.003762
-0.003762
-0.003763
-0.003764
-0.003766
-0.003767
-0.003770
-0.004052
-0.004051
-0.004051
-0.004051
-0.004052
-0.004053
-0.004054
-0.004056
-0.004058
-0.004349
-0.004349
-0.004349
-0.004349
-0.004350
-0.004350
-0.004352
-0.004353
-0.004356
-0.004655
-0.004655
-0.004655
-0.004655
-0.004655
-0.004656
-0.004658
-0.004659
-0.004661
-0.004970
-0.004969
-0.004969
-0.004969
-0.004969
-0.004970
-0.004972
-0.004973
-0.004975
-0.005292
-0.005292
-0.005291
-0.005291
-0.005292
-0.005292
-0.005293
-0.005295
-0.005297
-0.005623
-0.005622
-0.005622
-0.005621
-0.005622
-0.005622
-0.005623
-0.005625
-0.005627
-0.005961
-0.005960
-0.005959
-0.005959
-0.005960
-0.005960
-0.005961
-0.005962
-0.005964
-0.006306
-0.006305
-0.006305
-0.006305
-0.006305
-0.006305
-0.006306
-0.006308
-0.006309
-0.006659
-0.006658
-0.006658
-0.006658
-0.006658
-0.006658
-0.006659
-0.006660
-0.006662
-0.007019
-0.007018
-0.007018
-0.007017
-0.007018
-0.007018
-0.007018
-0.007020
-0.007021
-0.007386
-0.007385
-0.007385
-0.007384
-0.007384
-0.007385
-0.007385
-0.007386
-0.007388
-0.007760
-0.007759
-0.007758
-0.007758
-0.007758
-0.007758
-0.007759
-0.007760
-0.007761
-0.008141
-0.008140
-0.008139
-0.008138
-0.008138
-0.008138
-0.008139
-0.008140
-0.008141
-0.008527
-0.008526
-0.008525
-0.008525
-0.008525
-0.008525
-0.008525
-0.008526
-0.008527
-0.008920
-0.008919
-0.008918
-0.008918
-0.008917
-0.008917
-0.008918
-0.008918
-0.008919
-0.009319
-0.009318
-0.009317
-0.009316
-0.009316
-0.009316
-0.009316
-0.009317
-0.009317
-0.009723
-0.009722
-0.009721
-0.009721
-0.009720
-0.009720
-0.009720
-0.009721
-0.009721
-0.010133
-0.010132
-0.010131
-0.010130
-0.010130
-0.010130
-0.010130
-0.010130
-0.010131
-0.010549
-0.010547
-0.010546
-0.010545
-0.010545
-0.010544
-0.010544
-0.010545
-0.010545
-0.010969
-0.010967
-0.010966
-0.010965
-0.010965
-0.010964
-0.010964
-0.010964
-0.010965
-0.011394
-0.011392
-0.011391
-0.011390
-0.011389
-0.011389
-0.011389
-0.011389
-0.011389
-0.011823
-0.011821
-0.011820
-0.011819
-0.011818
-0.011818
-0.011818
-0.011818
-0.011818
-0.012257
-0.012255
-0.012254
-0.012253
-0.012252
-0.012252
-0.012251
-0.012251
-0.012251
-0.012694
-0.012693
-0.012692
-0.012691
-0.012690
-0.012689
-0.012689
-0.012688
-0.012689
-0.013136
-0.013135
-0.013133
-0.013132
-0.013131
-0.013130
-0.013130
-0.013130
-0.013130
-0.013581
-0.013580
-0.013578
-0.013577
-0.013576
-0.013575
-0.013575
-0.013574
-0.013574
-0.014030
-0.014028
-0.014027
-0.014026
-0.014025
-0.014024
-0.014023
-0.014023
-0.014023
-0.014482
-0.014480
-0.014479
-0.014478
-0.014476
-0.014475
-0.014475
-0.014474
-0.014474
-0.014937
-0.014935
-0.014934
-0.014932
-0.014931
-0.014930
-0.014929
-0.014929
-0.014928
-0.015394
-0.015393
-0.015391
-0.015390
-0.015388
-0.015387
-0.015386
-0.015386
-0.015385
-0.015855
-0.015853
-0.015851
-0.015850
-0.015848
-0.015847
-0.015846
-0.015845
-0.015845
-0.016317
-0.016315
-0.016313
-0.016312
-0.016311
-0.016309
-0.016308
-0.016307
-0.016307
-0.016781
-0.016779
-0.016778
-0.016776
-0.016775
-0.016774
-0.016772
-0.016771
-0.016771
-0.017248
-0.017246
-0.017244
-0.017242
-0.017241
-0.017240
-0.017238
-0.017237
-0.017236
-0.017716
-0.017714
-0.017712
-0.017710
-0.017709
-0.017707
-0.017706
-0.017705
-0.017704
-0.018185
-0.018183
-0.018181
-0.018180
-0.018178
-0.018176
-0.018175
-0.018174
-0.018173
-0.018656
-0.018654
-0.018652
-0.018650
-0.018648
-0.018647
-0.018646
-0.018644
-0.018643
-0.019128
-0.019126
-0.019124
-0.019122
-0.019120
-0.019118
-0.019117
-0.019116
-0.019115
-0.019600
-0.019598
-0.019596
-0.019594
-0.019592
-0.019591
-0.019589
-0.019588
-0.019587
-0.020073
-0.020071
-0.020069
-0.020067
-0.020066
-0.020064
-0.020062
-0.020061
-0.020059
-0.020547
-0.020545
-0.020543
-0.020541
-0.020539
-0.020538
-0.020536
-0.020534
-0.020533
-0.021021
-0.021019
-0.021017
-0.021015
-0.021013
-0.021012
-0.021010
-0.021008
-0.021007
-0.021496
-0.021493
-0.021491
-0.021489
-0.021487
-0.021485
-0.021484
-0.021482
-0.021480
-0.021970
-0.021968
-0.021965
-0.021963
-0.021962
-0.021959
-0.021958
-0.021956
-0.021954
-0.022444
-0.022442
-0.022439
-0.022437
-0.022435
-0.022433
-0.022431
-0.022430
-0.022428
-0.022917
-0.022915
-0.022913
-0.022911
-0.022909
-0.022907
-0.022905
-0.022903
-0.022901
-0.023391
-0.023388
-0.023386
-0.023384
-0.023382
-0.023380
-0.023378
-0.023376
-0.023374
-0.023863
-0.023861
-0.023858
-0.023856
-0.023854
-0.023852
-0.023850
-0.023848
-0.023846
-0.024335
-0.024332
-0.024330
-0.024328