# vtk DataFile Version 2.0
Generated volume Mesh
ASCII
DATASET UNSTRUCTURED_GRID
POINTS 891 float
0.005000 0.100000 0.000000
0.005000 0.000000 0.000000
0.005000 0.001250 0.000000
0.005000 0.002500 0.000000
0.005000 0.003750 0.000000
0.005000 0.005000 0.000000
0.005000 0.006250 0.000000
0.005000 0.007500 0.000000
0.005000 0.008750 0.000000
0.005000 0.010000 0.000000
0.005000 0.011250 0.000000
0.005000 0.012500 0.000000
0.005000 0.013750 0.000000
0.005000 0.015000 0.000000
0.005000 0.016250 0.000000
0.005000 0.017500 0.000000
0.005000 0.018750 0.000000
0.005000 0.020000 0.000000
0.005000 0.021250 0.000000
0.005000 0.022500 0.000000
0.005000 0.023750 0.000000
0.005000 0.025000 0.000000
0.005000 0.026250 0.000000
0.005000 0.027500 0.000000
0.005000 0.028750 0.000000
0.005000 0.030000 0.000000
0.005000 0.031250 0.000000
0.005000 0.032500 0.000000
0.005000 0.033750 0.000000
0.005000 0.035000 0.000000
0.005000 0.036250 0.000000
0.005000 0.037500 0.000000
0.005000 0.038750 0.000000
0.005000 0.040000 0.000000
0.005000 0.041250 0.000000
0.005000 0.042500 0.000000
0.005000 0.043750 0.000000
0.005000 0.045000 0.000000
0.005000 0.046250 0.000000
0.005000 0.047500 0.000000
0.005000 0.048750 0.000000
0.005000 0.050000 0.000000
0.005000 0.051250 0.000000
0.005000 0.052500 0.000000
0.005000 0.053750 0.000000
0.005000 0.055000 0.000000
0.005000 0.056250 0.000000
0.005000 0.057500 0.000000
0.005000 0.058750 0.000000
0.005000 0.060000 0.000000
0.005000 0.061250 0.000000
0.005000 0.062500 0.000000
0.005000 0.063750 0.000000
0.005000 0.065000 0.000000
0.005000 0.066250 0.000000
0.005000 0.067500 0.000000
0.005000 0.068750 0.000000
0.005000 0.070000 0.000000
0.005000 0.071250 0.000000
0.005000 0.072500 0.000000
0.005000 0.073750 0.000000
0.005000 0.075000 0.000000
0.005000 0.076250 0.000000
0.005000 0.077500 0.000000
0.005000 0.078750 0.000000
0.005000 0.080000 0.000000
0.005000 0.081250 0.000000
0.005000 0.082500 0.000000
0.005000 0.083750 0.000000
0.005000 0.085000 0.000000
0.005000 0.086250 0.000000
0.005000 0.087500 0.000000
0.005000 0.088750 0.000000
0.005000 0.090000 0.000000
0.005000 0.091250 0.000000
0.005000 0.092500 0.000000
0.005000 0.093750 0.000000
0.005000 0.095000 0.000000
0.005000 0.096250 0.000000
0.005000 0.097500 0.000000
0.005000 0.098750 0.000000
0.000000 0.000000 0.000000
0.000000 0.100000 0.000000
0.000000 0.098750 0.000000
0.000000 0.097500 0.000000
0.000000 0.096250 0.000000
0.000000 0.095000 0.000000
0.000000 0.093750 0.000000
0.000000 0.092500 0.000000
0.000000 0.091250 0.000000
0.000000 0.090000 0.000000
0.000000 0.088750 0.000000
0.000000 0.087500 0.000000
0.000000 0.086250 0.000000
0.000000 0.085000 0.000000
0.000000 0.083750 0.000000
0.000000 0.082500 0.000000
0.000000 0.081250 0.000000
0.000000 0.080000 0.000000
0.000000 0.078750 0.000000
0.000000 0.077500 0.000000
0.000000 0.076250 0.000000
0.000000 0.075000 0.000000
0.000000 0.073750 0.000000
0.000000 0.072500 0.000000
0.000000 0.071250 0.000000
0.000000 0.070000 0.000000
0.000000 0.068750 0.000000
0.000000 0.067500 0.000000
0.000000 0.066250 0.000000
0.000000 0.065000 0.000000
0.000000 0.063750 0.000000
0.000000 0.062500 0.000000
0.000000 0.061250 0.000000
0.000000 0.060000 0.000000
0.000000 0.058750 0.000000
0.000000 0.057500 0.000000
0.000000 0.056250 0.000000
0.000000 0.055000 0.000000
0.000000 0.053750 0.000000
0.000000 0.052500 0.000000
0.000000 0.051250 0.000000
0.000000 0.050000 0.000000
0.000000 0.048750 0.000000
0.000000 0.047500 0.000000
0.000000 0.046250 0.000000
0.000000 0.045000 0.000000
0.000000 0.043750 0.000000
0.000000 0.042500 0.000000
0.000000 0.041250 0.000000
0.000000 0.040000 0.000000
0.000000 0.038750 0.000000
0.000000 0.037500 0.000000
0.000000 0.036250 0.000000
0.000000 0.035000 0.000000
0.000000 0.033750 0.000000
0.000000 0.032500 0.000000
0.000000 0.031250 0.000000
0.000000 0.030000 0.000000
0.000000 0.028750 0.000000
0.000000 0.027500 0.000000
0.000000 0.026250 0.000000
0.000000 0.025000 0.000000
0.000000 0.023750 0.000000
0.000000 0.022500 0.000000
0.000000 0.021250 0.000000
0.000000 0.020000 0.000000
0.000000 0.018750 0.000000
0.000000 0.017500 0.000000
0.000000 0.016250 0.000000
0.000000 0.015000 0.000000
0.000000 0.013750 0.000000
0.000000 0.012500 0.000000
0.000000 0.011250 0.000000
0.000000 0.010000 0.000000
0.000000 0.008750 0.000000
0.000000 0.007500 0.000000
0.000000 0.006250 0.000000
0.000000 0.005000 0.000000
0.000000 0.003750 0.000000
0.000000 0.002500 0.000000
0.000000 0.001250 0.000000
0.000500 0.000000 0.000000
0.001000 0.000000 0.000000
0.001500 0.000000 0.000000
0.002000 0.000000 0.000000
0.002500 0.000000 0.000000
0.003000 0.000000 0.000000
0.003500 0.000000 0.000000
0.004000 0.000000 0.000000
0.004500 0.000000 0.000000
0.004500 0.100000 0.000000
0.004000 0.100000 0.000000
0.003500 0.100000 0.000000
0.003000 0.100000 0.000000
0.002500 0.100000 0.000000
0.002000 0.100000 0.000000
0.001500 0.100000 0.000000
0.001000 0.100000 0.000000
0.000500 0.100000 0.000000
0.000500 0.098750 0.000000
0.001000 0.098750 0.000000
0.001500 0.098750 0.000000
0.002000 0.098750 0.000000
0.002500 0.098750 0.000000
0.003000 0.098750 0.000000
0.003500 0.098750 0.000000
0.004000 0.098750 0.000000
0.004500 0.098750 0.000000
0.000500 0.097500 0.000000
0.001000 0.097500 0.000000
0.001500 0.097500 0.000000
0.002000 0.097500 0.000000
0.002500 0.097500 0.000000
0.003000 0.097500 0.000000
0.003500 0.097500 0.000000
0.004000 0.097500 0.000000
0.004500 0.097500 0.000000
0.000500 0.096250 0.000000
0.001000 0.096250 0.000000
0.001500 0.096250 0.000000
0.002000 0.096250 0.000000
0.002500 0.096250 0.000000
0.003000 0.096250 0.000000
0.003500 0.096250 0.000000
0.004000 0.096250 0.000000
0.004500 0.096250 0.000000
0.000500 0.095000 0.000000
0.001000 0.095000 0.000000
0.001500 0.095000 0.000000
0.002000 0.095000 0.000000
0.002500 0.095000 0.000000
0.003000 0.095000 0.000000
0.003500 0.095000 0.000000
0.004000 0.095000 0.000000
0.004500 0.095000 0.000000
0.000500 0.093750 0.000000
0.001000 0.093750 0.000000
0.001500 0.093750 0.000000
0.002000 0.093750 0.000000
0.002500 0.093750 0.000000
0.003000 0.093750 0.000000
0.003500 0.093750 0.000000
0.004000 0.093750 0.000000
0.004500 0.093750 0.000000
0.000500 0.092500 0.000000
0.001000 0.092500 0.000000
0.001500 0.092500 0.000000
0.002000 0.092500 0.000000
0.002500 0.092500 0.000000
0.003000 0.092500 0.000000
0.003500 0.092500 0.000000
0.004000 0.092500 0.000000
0.004500 0.092500 0.000000
0.000500 0.091250 0.000000
0.001000 0.091250 0.000000
0.001500 0.091250 0.000000
0.002000 0.091250 0.000000
0.002500 0.091250 0.000000
0.003000 0.091250 0.000000
0.003500 0.091250 0.000000
0.004000 0.091250 0.000000
0.004500 0.091250 0.000000
0.000500 0.090000 0.000000
0.001000 0.090000 0.000000
0.001500 0.090000 0.000000
0.002000 0.090000 0.000000
0.002500 0.090000 0.000000
0.003000 0.090000 0.000000
0.003500 0.090000 0.000000
0.004000 0.090000 0.000000
0.004500 0.090000 0.000000
0.000500 0.088750 0.000000
0.001000 0.088750 0.000000
0.001500 0.088750 0.000000
0.002000 0.088750 0.000000
0.002500 0.088750 0.000000
0.003000 0.088750 0.000000
0.003500 0.088750 0.000000
0.004000 0.088750 0.000000
0.004500 0.088750 0.000000
0.000500 0.087500 0.000000
0.001000 0.087500 0.000000
0.001500 0.087500 0.000000
0.002000 0.087500 0.000000
0.002500 0.087500 0.000000
0.003000 0.087500 0.000000
0.003500 0.087500 0.000000
0.004000 0.087500 0.000000
0.004500 0.087500 0.000000
0.000500 0.086250 0.000000
0.001000 0.086250 0.000000
0.001500 0.086250 0.000000
0.002000 0.086250 0.000000
0.002500 0.086250 0.000000
0.003000 0.086250 0.000000
0.003500 0.086250 0.000000
0.004000 0.086250 0.000000
0.004500 0.086250 0.000000
0.000500 0.085000 0.000000
0.001000 0.085000 0.000000
0.001500 0.085000 0.000000
0.002000 0.085000 0.000000
0.002500 0.085000 0.000000
0.003000 0.085000 0.000000
0.003500 0.085000 0.000000
0.004000 0.085000 0.000000
0.004500 0.085000 0.000000
0.000500 0.083750 0.000000
0.001000 0.083750 0.000000
0.001500 0.083750 0.000000
0.002000 0.083750 0.000000
0.002500 0.083750 0.000000
0.003000 0.083750 0.000000
0.003500 0.083750 0.000000
0.004000 0.083750 0.000000
0.004500 0.083750 0.000000
0.000500 0.082500 0.000000
0.001000 0.082500 0.000000
0.001500 0.082500 0.000000
0.002000 0.082500 0.000000
0.002500 0.082500 0.000000
0.003000 0.082500 0.000000
0.003500 0.082500 0.000000
0.004000 0.082500 0.000000
0.004500 0.082500 0.000000
0.000500 0.081250 0.000000
0.001000 0.081250 0.000000
0.001500 0.081250 0.000000
0.002000 0.081250 0.000000
0.002500 0.081250 0.000000
0.003000 0.081250 0.000000
0.003500 0.081250 0.000000
0.004000 0.081250 0.000000
0.004500 0.081250 0.000000
0.000500 0.080000 0.000000
0.001000 0.080000 0.000000
0.001500 0.080000 0.000000
0.002000 0.080000 0.000000
0.002500 0.080000 0.000000
0.003000 0.080000 0.000000
0.003500 0.080000 0.000000
0.004000 0.080000 0.000000
0.004500 0.080000 0.000000
0.000500 0.078750 0.000000
0.001000 0.078750 0.000000
0.001500 0.078750 0.000000
0.002000 0.078750 0.000000
0.002500 0.078750 0.000000
0.003000 0.078750 0.000000
0.003500 0.078750 0.000000
0.004000 0.078750 0.000000
0.004500 0.078750 0.000000
0.000500 0.077500 0.000000
0.001000 0.077500 0.000000
0.001500 0.077500 0.000000
0.002000 0.077500 0.000000
0.002500 0.077500 0.000000
0.003000 0.077500 0.000000
0.003500 0.077500 0.000000
0.004000 0.077500 0.000000
0.004500 0.077500 0.000000
0.000500 0.076250 0.000000
0.001000 0.076250 0.000000
0.001500 0.076250 0.000000
0.002000 0.076250 0.000000
0.002500 0.076250 0.000000
0.003000 0.076250 0.000000
0.003500 0.076250 0.000000
0.004000 0.076250 0.000000
0.004500 0.076250 0.000000
0.000500 0.075000 0.000000
0.001000 0.075000 0.000000
0.001500 0.075000 0.000000
0.002000 0.075000 0.000000
0.002500 0.075000 0.000000
0.003000 0.075000 0.000000
0.003500 0.075000 0.000000
0.004000 0.075000 0.000000
0.004500 0.075000 0.000000
0.000500 0.073750 0.000000
0.001000 0.073750 0.000000
0.001500 0.073750 0.000000
0.002000 0.073750 0.000000
0.002500 0.073750 0.000000
0.003000 0.073750 0.000000
[...]
POINT_DATA 891
SCALARS u1 float
LOOKUP_TABLE default
-3e-16
-3e-06
-3e-06
-3e-06
-3e-06
-3e-06
-3e-06
-3e-06
-3e-06
-3e-06
-3e-06
-3e-06
-3e-06
-3e-06
-3e-06
-3e-06
-3e-06
-3e-06
-3e-06
-3e-06
-3e-06
-3e-06
-3e-06
-3e-06
-3e-06
-3e-06
-3e-06
-3e-06
-3e-06
-3e-06
-3e-06
-3e-06
-3e-06
-3e-06
-3e-06
-3e-06
-3e-06
-3e-06
-3e-06
-3e-06
-3e-06
-3e-06
-3e-06
-3e-06
-3e-06
-3e-06
-3e-06
-3e-06
-3e-06
-3e-06
-3e-06
-3e-06
-3e-06
-3e-06
-3e-06
-3e-06
-3e-06
-3e-06
-3e-06
-3e-06
-3e-06
-3e-06
-3e-06
-3e-06
-3e-06
-3e-06
-3e-06
-3e-06
-3e-06
-3e-06
-3e-06
-3e-06
-3e-06
-3e-06
-3e-06
-3e-06
-3e-06
-3e-06
-3e-06
-3e-06
-2e-06
3e-06
6e-16
2e-06
3e-06
3e-06
3e-06
3e-06
3e-06
3e-06
3e-06
3e-06
3e-06
3e-06
3e-06
3e-06
3e-06
3e-06
3e-06
3e-06
3e-06
3e-06
3e-06
3e-06
3e-06
3e-06
3e-06
3e-06
3e-06
3e-06
3e-06
3e-06
3e-06
3e-06
3e-06
3e-06
3e-06
3e-06
3e-06
3e-06
3e-06
3e-06
3e-06
3e-06
3e-06
3e-06
3e-06
3e-06
3e-06
3e-06
3e-06
3e-06
3e-06
3e-06
3e-06
3e-06
3e-06
3e-06
3e-06
3e-06
3e-06
3e-06
3e-06
3e-06
3e-06
3e-06
3e-06
3e-06
3e-06
3e-06
3e-06
3e-06
3e-06
3e-06
3e-06
3e-06
3e-06
3e-06
3e-06
3e-06
3e-06
3e-06
2e-06
2e-06
1e-06
6e-07
3e-14
-6e-07
-1e-06
-2e-06
-2e-06
-1e-15
7e-16
1e-15
1e-15
1e-15
-3e-16
-1e-15
-8e-16
1e-15
2e-06
1e-06
7e-07
4e-07
-3e-14
-4e-07
-7e-07
-1e-06
-2e-06
2e-06
2e-06
1e-06
6e-07
-6e-15
-6e-07
-1e-06
-2e-06
-2e-06
2e-06
2e-06
1e-06
6e-07
4e-15
-6e-07
-1e-06
-2e-06
-2e-06
2e-06
2e-06
1e-06
6e-07
1e-14
-6e-07
-1e-06
-2e-06
-2e-06
2e-06
2e-06
1e-06
6e-07
2e-14
-6e-07
-1e-06
-2e-06
-2e-06
2e-06
2e-06
1e-06
6e-07
2e-14
-6e-07
-1e-06
-2e-06
-2e-06
2e-06
2e-06
1e-06
6e-07
3e-14
-6e-07
-1e-06
-2e-06
-2e-06
2e-06
2e-06
1e-06
6e-07
3e-14
-6e-07
-1e-06
-2e-06
-2e-06
2e-06
2e-06
1e-06
6e-07
3e-14
-6e-07
-1e-06
-2e-06
-2e-06
2e-06
2e-06
1e-06
6e-07
3e-14
-6e-07
-1e-06
-2e-06
-2e-06
2e-06
2e-06
1e-06
6e-07
4e-14
-6e-07
-1e-06
-2e-06
-2e-06
2e-06
2e-06
1e-06
6e-07
4e-14
-6e-07
-1e-06
-2e-06
-2e-06
2e-06
2e-06
1e-06
6e-07
4e-14
-6e-07
-1e-06
-2e-06
-2e-06
2e-06
2e-06
1e-06
6e-07
4e-14
-6e-07
-1e-06
-2e-06
-2e-06
2e-06
2e-06
1e-06
6e-07
4e-14
-6e-07
-1e-06
-2e-06
-2e-06
2e-06
2e-06
1e-06
6e-07
4e-14
-6e-07
-1e-06
-2e-06
-2e-06
2e-06
2e-06
1e-06
6e-07
4e-14
-6e-07
-1e-06
-2e-06
-2e-06
2e-06
2e-06
1e-06
6e-07
3e-14
-6e-07
-1e-06
-2e-06
-2e-06
2e-06
2e-06
1e-06
6e-07
3e-14
-6e-07
-1e-06
-2e-06
-2e-06
2e-06
2e-06
1e-06
6e-07
3e-14
-6e-07
-1e-06
-2e-06
-2e-06
2e-06
2e-06
1e-06
6e-07
3e-14
-6e-07
-1e-06
-2e-06
-2e-06
2e-06
2e-06
1e-06
6e-07
3e-14
-6e-07
-1e-06
-2e-06
-2e-06
2e-06
2e-06
1e-06
6e-07
3e-14
-6e-07
-1e-06
-2e-06
-2e-06
2e-06
2e-06
1e-06
6e-07
3e-14
-6e-07
-1e-06
-2e-06
-2e-06
2e-06
2e-06
1e-06
6e-07
3e-14
-6e-07
-1e-06
-2e-06
-2e-06
2e-06
2e-06
1e-06
6e-07
3e-14
-6e-07
-1e-06
-2e-06
-2e-06
2e-06
2e-06
1e-06
6e-07
3e-14
-6e-07
-1e-06
-2e-06
-2e-06
2e-06
2e-06
1e-06
6e-07
3e-14
-6e-07
-1e-06
-2e-06
-2e-06
2e-06
2e-06
1e-06
6e-07
3e-14
-6e-07
-1e-06
-2e-06
-2e-06
2e-06
2e-06
1e-06
6e-07
3e-14
-6e-07
-1e-06
-2e-06
-2e-06
2e-06
2e-06
1e-06
6e-07
3e-14
-6e-07
-1e-06
-2e-06
-2e-06
2e-06
2e-06
1e-06
6e-07
3e-14
-6e-07
-1e-06
-2e-06
-2e-06
2e-06
2e-06
1e-06
6e-07
3e-14
-6e-07
-1e-06
-2e-06
-2e-06
2e-06
2e-06
1e-06
6e-07
3e-14
-6e-07
-1e-06
-2e-06
-2e-06
2e-06
2e-06
1e-06
6e-07
3e-14
-6e-07
-1e-06
-2e-06
-2e-06
2e-06
2e-06
1e-06
6e-07
3e-14
-6e-07
-1e-06
-2e-06
-2e-06
2e-06
2e-06
1e-06
6e-07
3e-14
-6e-07
-1e-06
-2e-06
-2e-06
2e-06
2e-06
1e-06
6e-07
3e-14
-6e-07
-1e-06
-2e-06
-2e-06
2e-06
2e-06
1e-06
6e-07
3e-14
-6e-07
-1e-06
-2e-06
-2e-06
2e-06
2e-06
1e-06
6e-07
3e-14
-6e-07
-1e-06
-2e-06
-2e-06
2e-06
2e-06
1e-06
6e-07
3e-14
-6e-07
-1e-06
-2e-06
-2e-06
2e-06
2e-06
1e-06
6e-07
3e-14
-6e-07
-1e-06
-2e-06
-2e-06
2e-06
2e-06
1e-06
6e-07
3e-14
-6e-07
-1e-06
-2e-06
-2e-06
2e-06
2e-06
1e-06
6e-07
3e-14
-6e-07
-1e-06
-2e-06
-2e-06
2e-06
2e-06
1e-06
6e-07
3e-14
-6e-07
-1e-06
-2e-06
-2e-06
2e-06
2e-06
1e-06
6e-07
3e-14
-6e-07
-1e-06
-2e-06
-2e-06
2e-06
2e-06
1e-06
6e-07
3e-14
-6e-07
-1e-06
-2e-06
-2e-06
2e-06
2e-06
1e-06
6e-07
3e-14
-6e-07
-1e-06
-2e-06
-2e-06
2e-06
2e-06
1e-06
6e-07
3e-14
-6e-07
-1e-06
-2e-06
-2e-06
2e-06
2e-06
1e-06
6e-07
3e-14
-6e-07
-1e-06
-2e-06
-2e-06
2e-06
2e-06
1e-06
6e-07
3e-14
-6e-07
-1e-06
-2e-06
-2e-06
2e-06
2e-06
1e-06
6e-07
3e-14
-6e-07
-1e-06
-2e-06
-2e-06
2e-06
2e-06
1e-06
6e-07
3e-14
-6e-07
-1e-06
-2e-06
-2e-06
2e-06
2e-06
1e-06
6e-07
3e-14
-6e-07
-1e-06
-2e-06
-2e-06
2e-06
2e-06
1e-06
6e-07
3e-14
-6e-07
-1e-06
-2e-06
-2e-06
2e-06
2e-06
1e-06
6e-07
3e-14
-6e-07
-1e-06
-2e-06
-2e-06
2e-06
2e-06
1e-06
6e-07
3e-14
-6e-07
-1e-06
-2e-06
-2e-06
2e-06
2e-06
1e-06
6e-07
3e-14
-6e-07
-1e-06
-2e-06
-2e-06
2e-06
2e-06
1e-06
6e-07
3e-14
-6e-07
-1e-06
-2e-06
-2e-06
2e-06
2e-06
1e-06
6e-07
3e-14
-6e-07
-1e-06
-2e-06
-2e-06
2e-06
2e-06
1e-06
6e-07
3e-14
-6e-07
-1e-06
-2e-06
-2e-06
2e-06
2e-06
1e-06
6e-07
3e-14
-6e-07
-1e-06
-2e-06
-2e-06
2e-06
2e-06
1e-06
6e-07
3e-14
-6e-07
-1e-06
-2e-06
-2e-06
2e-06
2e-06
1e-06
6e-07
3e-14
-6e-07
-1e-06
-2e-06
-2e-06
2e-06
2e-06
1e-06
6e-07
3e-14
-6e-07
-1e-06
-2e-06
-2e-06
2e-06
2e-06
1e-06
6e-07
3e-14
-6e-07
-1e-06
-2e-06
-2e-06
2e-06
2e-06
1e-06
6e-07
3e-14
-6e-07
-1e-06
-2e-06
-2e-06
2e-06
2e-06
1e-06
6e-07
3e-14
-6e-07
-1e-06
-2e-06
-2e-06
2e-06
2e-06
1e-06
6e-07
3e-14
-6e-07
-1e-06
-2e-06
-2e-06
2e-06
2e-06
1e-06
6e-07
3e-14
-6e-07
-1e-06
-2e-06
-2e-06
2e-06
2e-06
1e-06
6e-07
3e-14
-6e-07
-1e-06
-2e-06
-2e-06
2e-06
2e-06
1e-06
6e-07
3e-14
-6e-07
-1e-06
-2e-06
-2e-06
2e-06
2e-06
1e-06
6e-07
3e-14
-6e-07
-1e-06
-2e-06
-2e-06
2e-06
2e-06
1e-06
6e-07
3e-14
-6e-07
-1e-06
-2e-06
-2e-06
2e-06
2e-06
1e-06
6e-07
3e-14
-6e-07
-1e-06
-2e-06
-2e-06
2e-06
2e-06
1e-06
6e-07
3e-14
-6e-07
-1e-06
-2e-06
-2e-06
2e-06
2e-06
1e-06
6e-07
3e-14
-6e-07
-1e-06
-2e-06
-2e-06
2e-06
2e-06
1e-06
6e-07
3e-14
-6e-07
-1e-06
-2e-06
-2e-06
2e-06
2e-06
1e-06
6e-07
3e-14
-6e-07
-1e-06
-2e-06
-2e-06
SCALARS u2 float
LOOKUP_TABLE default
2e-16
-0.0004
-0.0003
-0.0003
-0.0003
-0.0003
-0.0003
-0.0003
-0.0003
-0.0003
-0.0003
-0.0003
-0.0003
-0.0003
-0.0003
-0.0003
-0.0003
-0.0003
-0.0003
-0.0003
-0.0003
-0.0003
-0.0003
-0.0003
-0.0003
-0.0002
-0.0002
-0.0002
-0.0002
-0.0002
-0.0002
-0.0002
-0.0002
-0.0002
-0.0002
-0.0002
-0.0002
-0.0002
-0.0002
-0.0002
-0.0002
-0.0002
-0.0002
-0.0002
-0.0002
-0.0002
-0.0002
-0.0001
-0.0001
-0.0001
-0.0001
-0.0001
-0.0001
-0.0001
-0.0001
-0.0001
-0.0001
-0.0001
-0.0001
-0.0001
-9e-05
-9e-05
-8e-05
-8e-05
-7e-05
-7e-05
-7e-05
-6e-05
-6e-05
-5e-05
-5e-05
-4e-05
-4e-05
-3e-05
-3e-05
-3e-05
-2e-05
-2e-05
-1e-05
-9e-06
-5e-06
-0.0004
3e-16
-5e-06
-9e-06
-1e-05
-2e-05
-2e-05
-3e-05
-3e-05
-3e-05
-4e-05
-4e-05
-5e-05
-5e-05
-6e-05
-6e-05
-7e-05
-7e-05
-7e-05
-8e-05
-8e-05
-9e-05
-9e-05
-0.0001
-0.0001
-0.0001
-0.0001
-0.0001
-0.0001
-0.0001
-0.0001
-0.0001
-0.0001
-0.0001
-0.0001
-0.0001
-0.0002
-0.0002
-0.0002
-0.0002
-0.0002
-0.0002
-0.0002
-0.0002
-0.0002
-0.0002
-0.0002
-0.0002
-0.0002
-0.0002
-0.0002
-0.0002
-0.0002
-0.0002
-0.0002
-0.0002
-0.0002
-0.0002
-0.0003
-0.0003
-0.0003
-0.0003
-0.0003
-0.0003
-0.0003
-0.0003
-0.0003
-0.0003
-0.0003
-0.0003
-0.0003
-0.0003
-0.0003
-0.0003
-0.0003
-0.0003
-0.0003
-0.0003
-0.0003
-0.0003
-0.0003
-0.0004
-0.0004
-0.0004
-0.0004
-0.0004
-0.0004
-0.0004
-0.0004
-0.0004
4e-16
2e-16
-3e-16
-9e-16
1e-16
4e-16
2e-16
1e-16
4e-16
-4e-06
-4e-06
-4e-06
-4e-06
-4e-06
-4e-06
-4e-06
-4e-06
-4e-06
-8e-06
-8e-06
-8e-06
-8e-06
-8e-06
-8e-06
-8e-06
-8e-06
-8e-06
-1e-05
-1e-05
-1e-05
-1e-05
-1e-05
-1e-05
-1e-05
-1e-05
-1e-05
-2e-05
-2e-05
-2e-05
-2e-05
-2e-05
-2e-05
-2e-05
-2e-05
-2e-05
-2e-05
-2e-05
-2e-05
-2e-05
-2e-05
-2e-05
-2e-05
-2e-05
-2e-05
-3e-05
-3e-05
-3e-05
-3e-05
-3e-05
-3e-05
-3e-05
-3e-05
-3e-05
-3e-05
-3e-05
-3e-05
-3e-05
-3e-05
-3e-05
-3e-05
-3e-05
-3e-05
-3e-05
-3e-05
-3e-05
-3e-05
-3e-05
-3e-05
-3e-05
-3e-05
-3e-05
-4e-05
-4e-05
-4e-05
-4e-05
-4e-05
-4e-05
-4e-05
-4e-05
-4e-05
-4e-05
-4e-05
-4e-05
-4e-05
-4e-05
-4e-05
-4e-05
-4e-05
-4e-05
-5e-05
-5e-05
-5e-05
-5e-05
-5e-05
-5e-05
-5e-05
-5e-05
-5e-05
-5e-05
-5e-05
-5e-05
-5e-05
-5e-05
-5e-05
-5e-05
-5e-05
-5e-05
-6e-05
-6e-05
-6e-05
-6e-05
-6e-05
-6e-05
-6e-05
-6e-05
-6e-05
-6e-05
-6e-05
-6e-05
-6e-05
-6e-05
-6e-05
-6e-05
-6e-05
-6e-05
-7e-05
-7e-05
-7e-05
-7e-05
-7e-05
-7e-05
-7e-05
-7e-05
-7e-05
-7e-05
-7e-05
-7e-05
-7e-05
-7e-05
-7e-05
-7e-05
-7e-05
-7e-05
-7e-05
-7e-05
-7e-05
-7e-05
-7e-05
-7e-05
-7e-05
-7e-05
-7e-05
-8e-05
-8e-05
-8e-05
-8e-05
-8e-05
-8e-05
-8e-05
-8e-05
-8e-05
-8e-05
-8e-05
-8e-05
-8e-05
-8e-05
-8e-05
-8e-05
-8e-05
-8e-05
-9e-05
-9e-05
-9e-05
-9e-05
-9e-05
-9e-05
-9e-05
-9e-05
-9e-05
-9e-05
-9e-05
-9e-05
-9e-05
-9e-05
-9e-05
-9e-05
-9e-05
-9e-05
-0.0001
-0.0001
-0.0001
-0.0001
-0.0001
-0.0001
-0.0001
-0.0001
-0.0001
-0.0001
-0.0001
-0.0001
-0.0001
-0.0001
-0.0001
-0.0001
-0.0001
-0.0001
-0.0001
-0.0001
-0.0001
-0.0001
-0.0001
-0.0001
-0.0001
-0.0001
-0.0001
-0.0001
-0.0001
-0.0001
-0.0001
-0.0001
-0.0001
-0.0001
-0.0001
-0.0001
-0.0001
-0.0001
-0.0001
-0.0001
-0.0001
-0.0001
-0.0001
-0.0001
-0.0001
-0.0001
-0.0001
-0.0001
-0.0001
-0.0001
-0.0001
-0.0001
-0.0001
-0.0001
-0.0001
-0.0001
-0.0001
-0.0001
-0.0001
-0.0001
-0.0001
-0.0001
-0.0001
-0.0001
-0.0001
-0.0001
-0.0001
-0.0001
-0.0001
-0.0001
-0.0001
-0.0001
-0.0001
-0.0001
-0.0001
-0.0001
-0.0001
-0.0001
-0.0001
-0.0001
-0.0001
-0.0001
-0.0001
-0.0001
-0.0001
-0.0001
-0.0001
-0.0001
-0.0001
-0.0001
-0.0001
-0.0001
-0.0001
-0.0001
-0.0001
-0.0001
-0.0001
-0.0001
-0.0001
-0.0001
-0.0001
-0.0001
-0.0001
-0.0001
-0.0001
-0.0001
-0.0001
-0.0001
-0.0001
-0.0001
-0.0001
-0.0001
-0.0001
-0.0001
-0.0001
-0.0001
-0.0001
-0.0002
-0.0002
-0.0002
-0.0002
-0.0002
-0.0002
-0.0002
-0.0002
-0.0002
-0.0002
-0.0002
-0.0002
-0.0002
-0.0002
-0.0002
-0.0002
-0.0002
-0.0002
-0.0002
-0.0002
-0.0002
-0.0002
-0.0002
-0.0002
-0.0002
-0.0002
-0.0002
-0.0002
-0.0002
-0.0002
-0.0002
-0.0002
-0.0002
-0.0002
-0.0002
-0.0002
-0.0002
-0.0002
-0.0002
-0.0002
-0.0002
-0.0002
-0.0002
-0.0002
-0.0002
-0.0002
-0.0002
-0.0002
-0.0002
-0.0002
-0.0002
-0.0002
-0.0002
-0.0002
-0.0002
-0.0002
-0.0002
-0.0002
-0.0002
-0.0002
-0.0002
-0.0002
-0.0002
-0.0002
-0.0002
-0.0002
-0.0002
-0.0002
-0.0002
-0.0002
-0.0002
-0.0002
-0.0002
-0.0002
-0.0002
-0.0002
-0.0002
-0.0002
-0.0002
-0.0002
-0.0002
-0.0002
-0.0002
-0.0002
-0.0002
-0.0002
-0.0002
-0.0002
-0.0002
-0.0002
-0.0002
-0.0002
-0.0002
-0.0002
-0.0002
-0.0002
-0.0002
-0.0002
-0.0002
-0.0002
-0.0002
-0.0002
-0.0002
-0.0002
-0.0002
-0.0002
-0.0002
-0.0002
-0.0002
-0.0002
-0.0002
-0.0002
-0.0002
-0.0002
-0.0002
-0.0002
-0.0002
-0.0002
-0.0002
-0.0002
-0.0002
-0.0002
-0.0002
-0.0002
-0.0002
-0.0002
-0.0002
-0.0002
-0.0002
-0.0002
-0.0002
-0.0002
-0.0002
-0.0002
-0.0002
-0.0002
-0.0002
-0.0002
-0.0002
-0.0002
-0.0002
-0.0002
-0.0002
-0.0002
-0.0002
-0.0002
-0.0002
-0.0002
-0.0002
-0.0002
-0.0002
-0.0002
-0.0002
-0.0002
-0.0002
-0.0002
-0.0002
-0.0002
-0.0002
-0.0002
-0.0002
-0.0002
-0.0002
-0.0002
-0.0002
-0.0002
-0.0002
-0.0002
-0.0002
-0.0002
-0.0002
-0.0002
-0.0002
-0.0002
-0.0002
-0.0002
-0.0002
-0.0002
-0.0002
-0.0002
-0.0002
-0.0002
-0.0002
-0.0002
-0.0002
-0.0002
-0.0002
-0.0002
-0.0002
-0.0002
-0.0002
-0.0002
-0.0002
-0.0002
-0.0002
-0.0002
-0.0002
-0.0002
-0.0003
-0.0003
-0.0003
-0.0003
-0.0003
-0.0003
-0.0003
-0.0003
-0.0003
-0.0003
-0.0003
-0.0003
-0.0003
-0.0003
-0.0003
-0.0003
-0.0003
-0.0003
-0.0003
-0.0003
-0.0003
-0.0003
-0.0003
-0.0003
-0.0003
-0.0003
-0.0003
-0.0003
-0.0003
-0.0003
-0.0003
-0.0003
-0.0003
-0.0003
-0.0003
-0.0003
-0.0003
-0.0003
-0.0003
-0.0003
-0.0003
-0.0003
-0.0003
-0.0003
-0.0003
-0.0003
-0.0003
-0.0003
-0.0003
-0.0003
-0.0003
-0.0003
-0.0003
-0.0003
-0.0003
-0.0003
-0.0003
-0.0003
-0.0003
-0.0003
-0.0003
-0.0003
-0.0003
-0.0003
-0.0003
-0.0003
-0.0003
-0.0003
-0.0003
-0.0003
-0.0003
-0.0003
-0.0003
-0.0003
-0.0003
-0.0003
-0.0003
-0.0003
-0.0003
-0.0003
-0.0003
-0.0003
-0.0003
-0.0003
-0.0003
-0.0003
-0.0003
-0.0003
-0.0003
-0.0003
-0.0003
-0.0003
-0.0003
-0.0003
-0.0003
-0.0003
-0.0003
-0.0003
-0.0003
-0.0003
-0.0003
-0.0003
-0.0003
-0.0003
-0.0003
-0.0003
-0.0003
-0.0003
-0.0003
-0.0003
-0.0003
-0.0003
-0.0003
-0.0003
-0.0003
-0.0003
-0.0003
-0.0003
-0.0003
-0.0003
-0.0003
-0.0003
-0.0003
-0.0003
-0.0003
-0.0003
-0.0003
-0.0003
-0.0003
-0.0003
-0.0003
-0.0003
-0.0003
-0.0003
-0.0003
-0.0003
-0.0003
-0.0003
-0.0003
-0.0003
-0.0003
-0.0003
-0.0003
-0.0003
-0.0003
-0.0003
-0.0003
-0.0003
-0.0003
-0.0003
-0.0003
-0.0003
-0.0003
-0.0003
-0.0003
-0.0003
-0.0003
-0.0003
-0.0003
-0.0003
-0.0003
-0.0003
-0.0003
-0.0003
-0.0003
-0.0003
-0.0003
-0.0003
-0.0003
-0.0003
-0.0003
-0.0003
-0.0003
-0.0003
-0.0003
-0.0003
-0.0003
-0.0003
-0.0003
-0.0003
-0.0003
-0.0003
-0.0003
-0.0003
-0.0003
-0.0003
-0.0003
-0.0003
-0.0003
-0.0003
-0.0003
-0.0003
-0.0003
-0.0003
-0.0003
-0.0003
-0.0003
-0.0003
-0.0003
-0.0003
-0.0003
-0.0003
-0.0003
-0.0003
-0.0003
-0.0003
-0.0003
SCALARS strain_1 float
LOOKUP_TABLE default
-0.000217
-0.346634
-0.341395
-0.336128
-0.330839
-0.325523
-0.320185
-0.314827
-0.309447
-0.304050
-0.298634
-0.293202
-0.287757
-0.282299
-0.276829
-0.271350
-0.265864
-0.260371
-0.254874
-0.249375
-0.243876
-0.238377
-0.232884
-0.227395
-0.221914
-0.216445
-0.210988
-0.205544
-0.200117
-0.194713
-0.189327
-0.183967
-0.178633
-0.173329
-0.168055
-0.162817
-0.157615
-0.152452
-0.147333
-0.142257
-0.137229
-0.132253
-0.127326
-0.122456
-0.117644
-0.112894
-0.108205
-0.103583
-0.099030
-0.094548
-0.090139
-0.085806
-0.081551
-0.077379
-0.073287
-0.069282
-0.065364
-0.061536
-0.057799
-0.054157
-0.050610
-0.047160
-0.043809
-0.040558
-0.037410
-0.034365
-0.031422
-0.028587
-0.025857
-0.023235
-0.020721
-0.018315
-0.016018
-0.013829
-0.011750
-0.009779
-0.007918
-0.006164
-0.004518
-0.002980
-0.001545
-0.346944
-0.000008
-0.001340
-0.002777
-0.004322
-0.005971
-0.007729
-0.009596
-0.011571
-0.013656
-0.015850
-0.018153
-0.020565
-0.023085
-0.025714
-0.028449
-0.031292
-0.034240
-0.037291
-0.040448
-0.043707
-0.047064
-0.050522
-0.054076
-0.057726
-0.061471
-0.065305
-0.069232
-0.073245
-0.077342
-0.081526
-0.085788
-0.090129
-0.094546
-0.099036
-0.103598
-0.108228
-0.112924
-0.117683
-0.122503
-0.127381
-0.132313
-0.137300
-0.142335
-0.147418
-0.152547
-0.157718
-0.162926
-0.168173
-0.173454
-0.178766
-0.184107
-0.189474
-0.194866
-0.200280
-0.205713
-0.211163
-0.216629
-0.222105
-0.227591
-0.233087
-0.238587
-0.244090
-0.249596
-0.255101
-0.260605
-0.266103
-0.271595
-0.277079
-0.282554
-0.288017
-0.293468
-0.298904
-0.304325
-0.309726
-0.315111
-0.320474
-0.325817
-0.331136
-0.336431
-0.341700
-0.346915
-0.346886
-0.346855
-0.346825
-0.346795
-0.346764
-0.346733
-0.346700
-0.346668
-0.000177
-0.000139
-0.000107
-0.000080
-0.000056
-0.000037
-0.000023
-0.000013
-0.000009
-0.001341
-0.001345
-0.001355
-0.001367
-0.001385
-0.001409
-0.001436
-0.001468
-0.001505
-0.002777
-0.002782
-0.002790
-0.002802
-0.002821
-0.002843
-0.002870
-0.002903
-0.002938
-0.004319
-0.004323
-0.004331
-0.004344
-0.004361
-0.004384
-0.004411
-0.004442
-0.004478
-0.005970
-0.005973
-0.005980
-0.005993
-0.006010
-0.006032
-0.006057
-0.006088
-0.006124
-0.007728
-0.007730
-0.007738
-0.007749
-0.007766
-0.007787
-0.007813
-0.007843
-0.007879
-0.009595
-0.009596
-0.009602
-0.009614
-0.009630
-0.009651
-0.009676
-0.009706
-0.009740
-0.011568
-0.011570
-0.011576
-0.011587
-0.011602
-0.011622
-0.011648
-0.011677
-0.011711
-0.013653
-0.013654
-0.013659
-0.013669
-0.013684
-0.013704
-0.013728
-0.013757
-0.013792
-0.015846
-0.015847
-0.015852
-0.015861
-0.015876
-0.015895
-0.015918
-0.015947
-0.015980
-0.018148
-0.018148
-0.018153
-0.018162
-0.018175
-0.018194
-0.018218
-0.018246
-0.018278
-0.020559
-0.020558
-0.020563
-0.020571
-0.020585
-0.020602
-0.020625
-0.020652
-0.020685
-0.023079
-0.023078
-0.023082
-0.023091
-0.023102
-0.023120
-0.023142
-0.023168
-0.023200
-0.025707
-0.025705
-0.025708
-0.025716
-0.025727
-0.025744
-0.025766
-0.025792
-0.025823
-0.028442
-0.028440
-0.028442
-0.028450
-0.028461
-0.028476
-0.028497
-0.028523
-0.028553
-0.031284
-0.031282
-0.031283
-0.031289
-0.031300
-0.031316
-0.031335
-0.031360
-0.031389
-0.034232
-0.034229
-0.034229
-0.034234
-0.034245
-0.034260
-0.034279
-0.034303
-0.034331
-0.037283
-0.037279
-0.037280
-0.037285
-0.037295
-0.037308
-0.037328
-0.037349
-0.037377
-0.040438
-0.040434
-0.040435
-0.040439
-0.040448
-0.040461
-0.040478
-0.040501
-0.040528
-0.043696
-0.043692
-0.043690
-0.043693
-0.043701
-0.043715
-0.043731
-0.043754
-0.043778
-0.047053
-0.047049
-0.047047
-0.047049
-0.047057
-0.047069
-0.047086
-0.047106
-0.047131
-0.050511
-0.050505
-0.050501
-0.050504
-0.050512
-0.050522
-0.050538
-0.050558
-0.050582
-0.054065
-0.054058
-0.054055
-0.054057
-0.054062
-0.054073
-0.054087
-0.054106
-0.054130
-0.057714
-0.057707
-0.057704
-0.057705
-0.057711
-0.057720
-0.057734
-0.057751
-0.057773
-0.061459
-0.061450
-0.061447
-0.061447
-0.061452
-0.061459
-0.061473
-0.061489
-0.061511
-0.065293
-0.065285
-0.065280
-0.065280
-0.065284
-0.065292
-0.065304
-0.065320
-0.065340
-0.069219
-0.069210
-0.069205
-0.069203
-0.069206
-0.069213
-0.069225
-0.069240
-0.069259
-0.073232
-0.073222
-0.073215
-0.073214
-0.073216
-0.073222
-0.073233
-0.073246
-0.073265
-0.077329
-0.077319
-0.077312
-0.077310
-0.077312
-0.077317
-0.077326
-0.077340
-0.077356
-0.081511
-0.081500
-0.081492
-0.081490
-0.081491
-0.081495
-0.081502
-0.081514
-0.081531
-0.085773
-0.085761
-0.085753
-0.085750
-0.085749
-0.085754
-0.085760
-0.085772
-0.085787
-0.090114
-0.090102
-0.090093
-0.090088
-0.090087
-0.090090
-0.090097
-0.090107
-0.090121
-0.094529
-0.094517
-0.094508
-0.094504
-0.094502
-0.094504
-0.094509
-0.094518
-0.094531
-0.099020
-0.099007
-0.098997
-0.098991
-0.098990
-0.098990
-0.098994
-0.099002
-0.099015
-0.103582
-0.103567
-0.103557
-0.103551
-0.103547
-0.103547
-0.103551
-0.103558
-0.103569
-0.108210
-0.108197
-0.108185
-0.108179
-0.108175
-0.108173
-0.108177
-0.108182
-0.108192
-0.112905
-0.112892
-0.112880
-0.112873
-0.112867
-0.112866
-0.112868
-0.112873
-0.112881
-0.117665
-0.117650
-0.117638
-0.117628
-0.117624
-0.117621
-0.117622
-0.117626
-0.117634
-0.122484
-0.122468
-0.122456
-0.122447
-0.122439
-0.122437
-0.122437
-0.122440
-0.122447
-0.127361
-0.127345
-0.127332
-0.127323
-0.127315
-0.127311
-0.127310
-0.127313
-0.127316
-0.132295
-0.132278
-0.132264
-0.132254
-0.132246
-0.132241
-0.132240
-0.132240
-0.132244
-0.137280
-0.137263
-0.137248
-0.137237
-0.137229
-0.137223
-0.137220
-0.137220
-0.137223
-0.142315
-0.142298
-0.142283
-0.142270
-0.142263
-0.142256
-0.142252
-0.142250
-0.142253
-0.147399
-0.147380
-0.147364
-0.147353
-0.147343
-0.147334
-0.147330
-0.147328
-0.147330
-0.152526
-0.152508
-0.152491
-0.152479
-0.152467
-0.152459
-0.152453
-0.152450
-0.152450
-0.157696
-0.157677
-0.157660
-0.157647
-0.157634
-0.157626
-0.157620
-0.157616
-0.157614
-0.162905
-0.162885
-0.162869
-0.162855
-0.162842
-0.162832
-0.162824
-0.162819
-0.162818
-0.168151
-0.168131
-0.168114
-0.168098
-0.168084
-0.168074
-0.168066
-0.168060
-0.168057
-0.173431
-0.173411
-0.173392
-0.173376
-0.173362
-0.173352
-0.173342
-0.173335
-0.173331
-0.178743
-0.178723
-0.178703
-0.178687
-0.178674
-0.178660
-0.178651
-0.178642
-0.178637
-0.184084
-0.184063
-0.184044
-0.184026
-0.184011
-0.183998
-0.183987
-0.183978
-0.183972
-0.189451
-0.189430
-0.189411
-0.189393
-0.189376
-0.189363
-0.189351
-0.189341
-0.189333
-0.194844
-0.194821
-0.194801
-0.194782
-0.194766
-0.194752
-0.194740
-0.194728
-0.194719
-0.200257
-0.200234
-0.200213
-0.200194
-0.200177
-0.200162
-0.200149
-0.200137
-0.200128
-0.205689
-0.205667
-0.205645
-0.205626
-0.205608
-0.205592
-0.205577
-0.205565
-0.205554
-0.211138
-0.211116
-0.211094
-0.211074
-0.211056
-0.211040
-0.211024
-0.211010
-0.210998
-0.216602
-0.216580
-0.216557
-0.216537
-0.216518
-0.216499
-0.216484
-0.216468
-0.216457
-0.222079
-0.222056
-0.222032
-0.222013
-0.221992
-0.221974
-0.221957
-0.221942
-0.221928
-0.227566
-0.227542
-0.227518
-0.227497
-0.227477
-0.227458
-0.227441
-0.227425
-0.227410
-0.233061
-0.233036
-0.233013
-0.232990
-0.232970
-0.232949
-0.232931
-0.232915
-0.232899
-0.238561
-0.238536
-0.238512
-0.238490
-0.238467
-0.238447
-0.238428
-0.238410
-0.238393
-0.244064
-0.244039
-0.244015