# vtk DataFile Version 2.0
Generated volume Mesh
ASCII
DATASET UNSTRUCTURED_GRID
POINTS 405 float
0.050000 0.000100 0.000000
0.050000 -0.000100 0.000000
0.050000 -0.000050 0.000000
0.050000 -0.000000 0.000000
0.050000 0.000050 0.000000
0.000000 -0.000100 0.000000
0.000000 0.000100 0.000000
0.000000 0.000050 0.000000
0.000000 0.000000 0.000000
0.000000 -0.000050 0.000000
0.000625 -0.000100 0.000000
0.001250 -0.000100 0.000000
0.001875 -0.000100 0.000000
0.002500 -0.000100 0.000000
0.003125 -0.000100 0.000000
0.003750 -0.000100 0.000000
0.004375 -0.000100 0.000000
0.005000 -0.000100 0.000000
0.005625 -0.000100 0.000000
0.006250 -0.000100 0.000000
0.006875 -0.000100 0.000000
0.007500 -0.000100 0.000000
0.008125 -0.000100 0.000000
0.008750 -0.000100 0.000000
0.009375 -0.000100 0.000000
0.010000 -0.000100 0.000000
0.010625 -0.000100 0.000000
0.011250 -0.000100 0.000000
0.011875 -0.000100 0.000000
0.012500 -0.000100 0.000000
0.013125 -0.000100 0.000000
0.013750 -0.000100 0.000000
0.014375 -0.000100 0.000000
0.015000 -0.000100 0.000000
0.015625 -0.000100 0.000000
0.016250 -0.000100 0.000000
0.016875 -0.000100 0.000000
0.017500 -0.000100 0.000000
0.018125 -0.000100 0.000000
0.018750 -0.000100 0.000000
0.019375 -0.000100 0.000000
0.020000 -0.000100 0.000000
0.020625 -0.000100 0.000000
0.021250 -0.000100 0.000000
0.021875 -0.000100 0.000000
0.022500 -0.000100 0.000000
0.023125 -0.000100 0.000000
0.023750 -0.000100 0.000000
0.024375 -0.000100 0.000000
0.025000 -0.000100 0.000000
0.025625 -0.000100 0.000000
0.026250 -0.000100 0.000000
0.026875 -0.000100 0.000000
0.027500 -0.000100 0.000000
0.028125 -0.000100 0.000000
0.028750 -0.000100 0.000000
0.029375 -0.000100 0.000000
0.030000 -0.000100 0.000000
0.030625 -0.000100 0.000000
0.031250 -0.000100 0.000000
0.031875 -0.000100 0.000000
0.032500 -0.000100 0.000000
0.033125 -0.000100 0.000000
0.033750 -0.000100 0.000000
0.034375 -0.000100 0.000000
0.035000 -0.000100 0.000000
0.035625 -0.000100 0.000000
0.036250 -0.000100 0.000000
0.036875 -0.000100 0.000000
0.037500 -0.000100 0.000000
0.038125 -0.000100 0.000000
0.038750 -0.000100 0.000000
0.039375 -0.000100 0.000000
0.040000 -0.000100 0.000000
0.040625 -0.000100 0.000000
0.041250 -0.000100 0.000000
0.041875 -0.000100 0.000000
0.042500 -0.000100 0.000000
0.043125 -0.000100 0.000000
0.043750 -0.000100 0.000000
0.044375 -0.000100 0.000000
0.045000 -0.000100 0.000000
0.045625 -0.000100 0.000000
0.046250 -0.000100 0.000000
0.046875 -0.000100 0.000000
0.047500 -0.000100 0.000000
0.048125 -0.000100 0.000000
0.048750 -0.000100 0.000000
0.049375 -0.000100 0.000000
0.049375 0.000100 0.000000
0.048750 0.000100 0.000000
0.048125 0.000100 0.000000
0.047500 0.000100 0.000000
0.046875 0.000100 0.000000
0.046250 0.000100 0.000000
0.045625 0.000100 0.000000
0.045000 0.000100 0.000000
0.044375 0.000100 0.000000
0.043750 0.000100 0.000000
0.043125 0.000100 0.000000
0.042500 0.000100 0.000000
0.041875 0.000100 0.000000
0.041250 0.000100 0.000000
0.040625 0.000100 0.000000
0.040000 0.000100 0.000000
0.039375 0.000100 0.000000
0.038750 0.000100 0.000000
0.038125 0.000100 0.000000
0.037500 0.000100 0.000000
0.036875 0.000100 0.000000
0.036250 0.000100 0.000000
0.035625 0.000100 0.000000
0.035000 0.000100 0.000000
0.034375 0.000100 0.000000
0.033750 0.000100 0.000000
0.033125 0.000100 0.000000
0.032500 0.000100 0.000000
0.031875 0.000100 0.000000
0.031250 0.000100 0.000000
0.030625 0.000100 0.000000
0.030000 0.000100 0.000000
0.029375 0.000100 0.000000
0.028750 0.000100 0.000000
0.028125 0.000100 0.000000
0.027500 0.000100 0.000000
0.026875 0.000100 0.000000
0.026250 0.000100 0.000000
0.025625 0.000100 0.000000
0.025000 0.000100 0.000000
0.024375 0.000100 0.000000
0.023750 0.000100 0.000000
0.023125 0.000100 0.000000
0.022500 0.000100 0.000000
0.021875 0.000100 0.000000
0.021250 0.000100 0.000000
0.020625 0.000100 0.000000
0.020000 0.000100 0.000000
0.019375 0.000100 0.000000
0.018750 0.000100 0.000000
0.018125 0.000100 0.000000
0.017500 0.000100 0.000000
0.016875 0.000100 0.000000
0.016250 0.000100 0.000000
0.015625 0.000100 0.000000
0.015000 0.000100 0.000000
0.014375 0.000100 0.000000
0.013750 0.000100 0.000000
0.013125 0.000100 0.000000
0.012500 0.000100 0.000000
0.011875 0.000100 0.000000
0.011250 0.000100 0.000000
0.010625 0.000100 0.000000
0.010000 0.000100 0.000000
0.009375 0.000100 0.000000
0.008750 0.000100 0.000000
0.008125 0.000100 0.000000
0.007500 0.000100 0.000000
0.006875 0.000100 0.000000
0.006250 0.000100 0.000000
0.005625 0.000100 0.000000
0.005000 0.000100 0.000000
0.004375 0.000100 0.000000
0.003750 0.000100 0.000000
0.003125 0.000100 0.000000
0.002500 0.000100 0.000000
0.001875 0.000100 0.000000
0.001250 0.000100 0.000000
0.000625 0.000100 0.000000
0.000625 0.000050 0.000000
0.001250 0.000050 0.000000
0.001875 0.000050 0.000000
0.002500 0.000050 0.000000
0.003125 0.000050 0.000000
0.003750 0.000050 0.000000
0.004375 0.000050 0.000000
0.005000 0.000050 0.000000
0.005625 0.000050 0.000000
0.006250 0.000050 0.000000
0.006875 0.000050 0.000000
0.007500 0.000050 0.000000
0.008125 0.000050 0.000000
0.008750 0.000050 0.000000
0.009375 0.000050 0.000000
0.010000 0.000050 0.000000
0.010625 0.000050 0.000000
0.011250 0.000050 0.000000
0.011875 0.000050 0.000000
0.012500 0.000050 0.000000
0.013125 0.000050 0.000000
0.013750 0.000050 0.000000
0.014375 0.000050 0.000000
0.015000 0.000050 0.000000
0.015625 0.000050 0.000000
0.016250 0.000050 0.000000
0.016875 0.000050 0.000000
0.017500 0.000050 0.000000
0.018125 0.000050 0.000000
0.018750 0.000050 0.000000
0.019375 0.000050 0.000000
0.020000 0.000050 0.000000
0.020625 0.000050 0.000000
0.021250 0.000050 0.000000
0.021875 0.000050 0.000000
0.022500 0.000050 0.000000
0.023125 0.000050 0.000000
0.023750 0.000050 0.000000
0.024375 0.000050 0.000000
0.025000 0.000050 0.000000
0.025625 0.000050 0.000000
0.026250 0.000050 0.000000
0.026875 0.000050 0.000000
0.027500 0.000050 0.000000
0.028125 0.000050 0.000000
0.028750 0.000050 0.000000
0.029375 0.000050 0.000000
0.030000 0.000050 0.000000
0.030625 0.000050 0.000000
0.031250 0.000050 0.000000
0.031875 0.000050 0.000000
0.032500 0.000050 0.000000
0.033125 0.000050 0.000000
0.033750 0.000050 0.000000
0.034375 0.000050 0.000000
0.035000 0.000050 0.000000
0.035625 0.000050 0.000000
0.036250 0.000050 0.000000
0.036875 0.000050 0.000000
0.037500 0.000050 0.000000
0.038125 0.000050 0.000000
0.038750 0.000050 0.000000
0.039375 0.000050 0.000000
0.040000 0.000050 0.000000
0.040625 0.000050 0.000000
0.041250 0.000050 0.000000
0.041875 0.000050 0.000000
0.042500 0.000050 0.000000
0.043125 0.000050 0.000000
0.043750 0.000050 0.000000
0.044375 0.000050 0.000000
0.045000 0.000050 0.000000
0.045625 0.000050 0.000000
0.046250 0.000050 0.000000
0.046875 0.000050 0.000000
0.047500 0.000050 0.000000
0.048125 0.000050 0.000000
0.048750 0.000050 0.000000
0.049375 0.000050 0.000000
0.000625 0.000000 0.000000
0.001250 0.000000 0.000000
0.001875 0.000000 0.000000
0.002500 0.000000 0.000000
0.003125 0.000000 0.000000
0.003750 0.000000 0.000000
0.004375 0.000000 0.000000
0.005000 0.000000 0.000000
0.005625 0.000000 0.000000
0.006250 0.000000 0.000000
0.006875 0.000000 0.000000
0.007500 0.000000 0.000000
0.008125 0.000000 0.000000
0.008750 0.000000 0.000000
0.009375 0.000000 0.000000
0.010000 0.000000 0.000000
0.010625 0.000000 0.000000
0.011250 0.000000 0.000000
0.011875 0.000000 0.000000
0.012500 0.000000 0.000000
0.013125 0.000000 0.000000
0.013750 0.000000 0.000000
0.014375 0.000000 0.000000
0.015000 0.000000 0.000000
0.015625 0.000000 0.000000
0.016250 0.000000 0.000000
0.016875 0.000000 0.000000
0.017500 0.000000 0.000000
0.018125 0.000000 0.000000
0.018750 0.000000 0.000000
0.019375 0.000000 0.000000
0.020000 0.000000 0.000000
0.020625 0.000000 0.000000
0.021250 0.000000 0.000000
0.021875 0.000000 0.000000
0.022500 0.000000 0.000000
0.023125 0.000000 0.000000
0.023750 0.000000 0.000000
0.024375 0.000000 0.000000
0.025000 -0.000000 0.000000
0.025625 -0.000000 0.000000
0.026250 -0.000000 0.000000
0.026875 -0.000000 0.000000
0.027500 -0.000000 0.000000
0.028125 -0.000000 0.000000
0.028750 -0.000000 0.000000
0.029375 -0.000000 0.000000
0.030000 -0.000000 0.000000
0.030625 -0.000000 0.000000
0.031250 -0.000000 0.000000
0.031875 -0.000000 0.000000
0.032500 -0.000000 0.000000
0.033125 -0.000000 0.000000
0.033750 -0.000000 0.000000
0.034375 -0.000000 0.000000
0.035000 -0.000000 0.000000
0.035625 -0.000000 0.000000
0.036250 -0.000000 0.000000
0.036875 -0.000000 0.000000
0.037500 -0.000000 0.000000
0.038125 -0.000000 0.000000
0.038750 -0.000000 0.000000
0.039375 -0.000000 0.000000
0.040000 -0.000000 0.000000
0.040625 -0.000000 0.000000
0.041250 -0.000000 0.000000
0.041875 -0.000000 0.000000
0.042500 -0.000000 0.000000
0.043125 -0.000000 0.000000
0.043750 -0.000000 0.000000
0.044375 -0.000000 0.000000
0.045000 -0.000000 0.000000
0.045625 -0.000000 0.000000
0.046250 -0.000000 0.000000
0.046875 -0.000000 0.000000
0.047500 -0.000000 0.000000
0.048125 -0.000000 0.000000
0.048750 -0.000000 0.000000
0.049375 -0.000000 0.000000
0.000625 -0.000050 0.000000
0.001250 -0.000050 0.000000
0.001875 -0.000050 0.000000
0.002500 -0.000050 0.000000
0.003125 -0.000050 0.000000
0.003750 -0.000050 0.000000
0.004375 -0.000050 0.000000
0.005000 -0.000050 0.000000
0.005625 -0.000050 0.000000
0.006250 -0.000050 0.000000
0.006875 -0.000050 0.000000
0.007500 -0.000050 0.000000
0.008125 -0.000050 0.000000
0.008750 -0.000050 0.000000
0.009375 -0.000050 0.000000
0.010000 -0.000050 0.000000
0.010625 -0.000050 0.000000
0.011250 -0.000050 0.000000
0.011875 -0.000050 0.000000
0.012500 -0.000050 0.000000
0.013125 -0.000050 0.000000
0.013750 -0.000050 0.000000
0.014375 -0.000050 0.000000
0.015000 -0.000050 0.000000
0.015625 -0.000050 0.000000
0.016250 -0.000050 0.000000
0.016875 -0.000050 0.000000
0.017500 -0.000050 0.000000
0.018125 -0.000050 0.000000
0.018750 -0.000050 0.000000
0.019375 -0.000050 0.000000
0.020000 -0.000050 0.000000
0.020625 -0.000050 0.000000
0.021250 -0.000050 0.000000
0.021875 -0.000050 0.000000
0.022500 -0.000050 0.000000
0.023125 -0.000050 0.000000
0.023750 -0.000050 0.000000
0.024375 -0.000050 0.000000
0.025000 -0.000050 0.000000
0.025625 -0.000050 0.000000
0.026250 -0.000050 0.000000
0.026875 -0.000050 0.000000
0.027500 -0.000050 0.000000
0.028125 -0.000050 0.000000
0.028750 -0.000050 0.000000
0.029375 -0.000050 0.000000
0.030000 -0.000050 0.000000
0.030625 -0.000050 0.000000
0.031250 -0.000050 0.000000
0.031875 -0.000050 0.000000
0.032500 -0.000050 0.000000
0.033125 -0.000050 0.000000
0.033750 -0.000050 0.000000
0.034375 -0.000050 0.000000
0.035000 -0.000050 0.000000
0.035625 -0.000050 0.000000
0.036250 -0.000050 0.000000
0.036875 -0.000050 0.000000
0.037500 -0.000050 0.000000
0.038125 -0.000050 0.000000
0.038750 -0.000050 0.000000
0.039375 -0.000050 0.000000
0.040000 -0.000050 0.000000
0.040625 -0.000050 0.000000
0.041250 -0.000050 0.000000
0.041875 -0.000050 0.000000
0.042500 -0.000050 0.000000
0.043125 -0.000050 0.000000
0.043750 -0.000050 0.000000
0.044375 -0.000050 0.000000
0.045000 -0.000050 0.000000
0.045625 -0.000050 0.000000
0.046250 -0.000050 0.000000
0.046875 -0.000050 0.000000
0.047500 -0.000050 0.000000
0.048125 -0.000050 0.000000
0.048750 -0.000050 0.000000
0.049375 -0.000050 0.000000
CELLS 320 1600
4 6 7 168 167
4 167 168 169 166
4 166 169 170 165
4 165 170 171 164
4 164 171 172 163
4 163 172 173 162
4 162 173 174 161
4 161 174 175 160
4 160 175 176 159
4 159 176 177 158
4 158 177 178 157
4 157 178 179 156
4 156 179 180 155
4 155 180 181 154
4 154 181 182 153
4 153 182 183 152
4 152 183 184 151
4 151 184 185 150
4 150 185 186 149
4 149 186 187 148
4 148 187 188 147
4 147 188 189 146
4 146 189 190 145
4 145 190 191 144
4 144 191 192 143
4 143 192 193 142
4 142 193 194 141
4 141 194 195 140
4 140 195 196 139
4 139 196 197 138
4 138 197 198 137
4 137 198 199 136
4 136 199 200 135
4 135 200 201 134
4 134 201 202 133
4 133 202 203 132
4 132 203 204 131
4 131 204 205 130
4 130 205 206 129
4 129 206 207 128
4 128 207 208 127
4 127 208 209 126
4 126 209 210 125
4 125 210 211 124
4 124 211 212 123
4 123 212 213 122
4 122 213 214 121
4 121 214 215 120
4 120 215 216 119
4 119 216 217 118
4 118 217 218 117
4 117 218 219 116
4 116 219 220 115
4 115 220 221 114
4 114 221 222 113
4 113 222 223 112
4 112 223 224 111
4 111 224 225 110
4 110 225 226 109
4 109 226 227 108
4 108 227 228 107
4 107 228 229 106
4 106 229 230 105
4 105 230 231 104
4 104 231 232 103
4 103 232 233 102
4 102 233 234 101
4 101 234 235 100
4 100 235 236 99
4 99 236 237 98
4 98 237 238 97
4 97 238 239 96
4 96 239 240 95
4 95 240 241 94
4 94 241 242 93
4 93 242 243 92
4 92 243 244 91
4 91 244 245 90
4 90 245 246 89
4 89 246 4 0
4 7 8 247 168
4 168 247 248 169
4 169 248 249 170
4 170 249 250 171
4 171 250 251 172
4 172 251 252 173
4 173 252 253 174
4 174 253 254 175
4 175 254 255 176
4 176 255 256 177
4 177 256 257 178
4 178 257 258 179
4 179 258 259 180
4 180 259 260 181
4 181 260 261 182
4 182 261 262 183
4 183 262 263 184
4 184 263 264 185
4 185 264 265 186
4 186 265 266 187
4 187 266 267 188
4 188 267 268 189
4 189 268 269 190
4 190 269 270 191
4 191 270 271 192
4 192 271 272 193
4 193 272 273 194
4 194 273 274 195
4 195 274 275 196
4 196 275 276 197
4 197 276 277 198
4 198 277 278 199
4 199 278 279 200
4 200 279 280 201
4 201 280 281 202
4 202 281 282 203
4 203 282 283 204
4 204 283 284 205
4 205 284 285 206
4 206 285 286 207
4 207 286 287 208
4 208 287 288 209
4 209 288 289 210
4 210 289 290 211
4 211 290 291 212
4 212 291 292 213
4 213 292 293 214
4 214 293 294 215
4 215 294 295 216
4 216 295 296 217
4 217 296 297 218
4 218 297 298 219
4 219 298 299 220
4 220 299 300 221
4 221 300 301 222
4 222 301 302 223
4 223 302 303 224
4 224 303 304 225
4 225 304 305 226
4 226 305 306 227
4 227 306 307 228
4 228 307 308 229
4 229 308 309 230
4 230 309 310 231
4 231 310 311 232
4 232 311 312 233
4 233 312 313 234
4 234 313 314 235
4 235 314 315 236
4 236 315 316 237
4 237 316 317 238
4 238 317 318 239
4 239 318 319 240
4 240 319 320 241
4 241 320 321 242
4 242 321 322 243
4 243 322 323 244
4 244 323 324 245
4 245 324 325 246
4 246 325 3 4
4 8 9 326 247
4 247 326 327 248
4 248 327 328 249
4 249 328 329 250
4 250 329 330 251
4 251 330 331 252
4 252 331 332 253
4 253 332 333 254
4 254 333 334 255
4 255 334 335 256
4 256 335 336 257
4 257 336 337 258
4 258 337 338 259
4 259 338 339 260
4 260 339 340 261
4 261 340 341 262
4 262 341 342 263
4 263 342 343 264
4 264 343 344 265
4 265 344 345 266
4 266 345 346 267
4 267 346 347 268
4 268 347 348 269
4 269 348 349 270
4 270 349 350 271
4 271 350 351 272
4 272 351 352 273
4 273 352 353 274
4 274 353 354 275
4 275 354 355 276
4 276 355 356 277
4 277 356 357 278
4 278 357 358 279
4 279 358 359 280
4 280 359 360 281
4 281 360 361 282
4 282 361 362 283
4 283 362 363 284
4 284 363 364 285
4 285 364 365 286
4 286 365 366 287
4 287 366 367 288
4 288 367 368 289
4 289 368 369 290
4 290 369 370 291
4 291 370 371 292
4 292 371 372 293
4 293 372 373 294
4 294 373 374 295
4 295 374 375 296
4 296 375 376 297
4 297 376 377 298
4 298 377 378 299
4 299 378 379 300
4 300 379 380 301
4 301 380 381 302
4 302 381 382 303
4 303 382 383 304
4 304 383 384 305
4 305 384 385 306
4 306 385 386 307
4 307 386 387 308
4 308 387 388 309
4 309 388 389 310
4 310 389 390 311
4 311 390 391 312
4 312 391 392 313
4 313 392 393 314
4 314 393 394 315
4 315 394 395 316
4 316 395 396 317
4 317 396 397 318
4 318 397 398 319
4 319 398 399 320
4 320 399 400 321
4 321 400 401 322
4 322 401 402 323
4 323 402 403 324
4 324 403 404 325
4 325 404 2 3
4 9 5 10 326
4 326 10 11 327
4 327 11 12 328
4 328 12 13 329
4 329 13 14 330
4 330 14 15 331
4 331 15 16 332
4 332 16 17 333
4 333 17 18 334
4 334 18 19 335
4 335 19 20 336
4 336 20 21 337
4 337 21 22 338
4 338 22 23 339
4 339 23 24 340
4 340 24 25 341
4 341 25 26 342
4 342 26 27 343
4 343 27 28 344
4 344 28 29 345
4 345 29 30 346
4 346 30 31 347
4 347 31 32 348
4 348 32 33 349
4 349 33 34 350
4 350 34 35 351
4 351 35 36 352
4 352 36 37 353
4 353 37 38 354
4 354 38 39 355
4 355 39 40 356
4 356 40 41 357
4 357 41 42 358
4 358 42 43 359
4 359 43 44 360
4 360 44 45 361
4 361 45 46 362
4 362 46 47 363
4 363 47 48 364
4 364 48 49 365
4 365 49 50 366
4 366 50 51 367
4 367 51 52 368
4 368 52 53 369
4 369 53 54 370
4 370 54 55 371
4 371 55 56 372
4 372 56 57 373
4 373 57 58 374
4 374 58 59 375
4 375 59 60 376
4 376 60 61 377
4 377 61 62 378
4 378 62 63 379
4 379 63 64 380
4 380 64 65 381
4 381 65 66 382
4 382 66 67 383
4 383 67 68 384
4 384 68 69 385
4 385 69 70 386
4 386 70 71 387
4 387 71 72 388
4 388 72 73 389
4 389 73 74 390
4 390 74 75 391
4 391 75 76 392
4 392 76 77 393
4 393 77 78 394
4 394 78 79 395
4 395 79 80 396
4 396 80 81 397
4 397 81 82 398
4 398 82 83 399
4 399 83 84 400
4 400 84 85 401
4 401 85 86 402
4 402 86 87 403
4 403 87 88 404
4 404 88 1 2
CELL_TYPES 320
9
9
9
9
9
9
9
9
9
9
9
9
9
9
9
9
9
9
9
9
9
9
9
9
9
9
9
9
9
9
9
9
9
9
9
9
9
9
9
9
9
9
9
9
9
9
9
9
9
9
9
9
9
9
9
9
9
9
9
9
9
9
9
9
9
9
9
9
9
9
9
9
9
9
9
9
9
9
9
9
9
9
9
9
9
9
9
9
9
9
9
9
9
9
9
9
9
9
9
9
9
9
9
9
9
9
9
9
9
9
9
9
9
9
9
9
9
9
9
9
9
9
9
9
9
9
9
9
9
9
9
9
9
9
9
9
9
9
9
9
9
9
9
9
9
9
9
9
9
9
9
9
9
9
9
9
9
9
9
9
9
9
9
9
9
9
9
9
9
9
9
9
9
9
9
9
9
9
9
9
9
9
9
9
9
9
9
9
9
9
9
9
9
9
9
9
9
9
9
9
9
9
9
9
9
9
9
9
9
9
9
9
9
9
9
9
9
9
9
9
9
9
9
9
9
9
9
9
9
9
9
9
9
9
9
9
9
9
9
9
9
9
9
9
9
9
9
9
9
9
9
9
9
9
9
9
9
9
9
9
9
9
9
9
9
9
9
9
9
9
9
9
9
9
9
9
9
9
9
9
9
9
9
9
9
9
9
9
9
9
9
9
9
9
9
9
9
9
9
9
9
9
9
9
9
9
9
9
9
9
9
9
9
9
9
9
9
9
9
9
POINT_DATA 405
SCALARS u1 float
LOOKUP_TABLE default
0.0000000000
0.0000000000
0.0000000000
0.0000000000
0.0000000000
0.0000000000
0.0000000000
0.0000000000
0.0000000000
0.0000000000
-0.0000176384
-0.0000360683
-0.0000534497
-0.0000700931
-0.0000859449
-0.0001008533
-0.0001148408
-0.0001277612
-0.0001396162
-0.0001502954
-0.0001597915
-0.0001680290
-0.0001750039
-0.0001806724
-0.0001850412
-0.0001880954
-0.0001898560
-0.0001903334
-0.0001895641
-0.0001875805
-0.0001844342
-0.0001801761
-0.0001748712
-0.0001685855
-0.0001613952
-0.0001533776
-0.0001446171
-0.0001351984
-0.0001252100
-0.0001147395
-0.0001038746
-0.0000926998
-0.0000812964
-0.0000697389
-0.0000580938
-0.0000464173
-0.0000347522
-0.0000231257
-0.0000115461
0.0000000001
0.0000115463
0.0000231259
0.0000347524
0.0000464174
0.0000580940
0.0000697390
0.0000812966
0.0000927000
0.0001038747
0.0001147396
0.0001252101
0.0001351985
0.0001446172
0.0001533776
0.0001613952
0.0001685855
0.0001748712
0.0001801760
0.0001844342
0.0001875804
0.0001895640
0.0001903333
0.0001898559
0.0001880953
0.0001850411
0.0001806722
0.0001750038
0.0001680289
0.0001597914
0.0001502953
0.0001396161
0.0001277611
0.0001148408
0.0001008533
0.0000859449
0.0000700930
0.0000534497
0.0000360683
0.0000176384
-0.0000176384
-0.0000360683
-0.0000534497
-0.0000700930
-0.0000859449
-0.0001008533
-0.0001148408
-0.0001277611
-0.0001396161
-0.0001502953
-0.0001597914
-0.0001680289
-0.0001750038
-0.0001806722
-0.0001850411
-0.0001880953
-0.0001898559
-0.0001903333
-0.0001895640
-0.0001875804
-0.0001844342
-0.0001801760
-0.0001748712
-0.0001685855
-0.0001613952
-0.0001533777
-0.0001446172
-0.0001351985
-0.0001252101
-0.0001147396
-0.0001038747
-0.0000927000
-0.0000812966
-0.0000697390
-0.0000580940
-0.0000464174
-0.0000347524
-0.0000231259
-0.0000115463
-0.0000000001
0.0000115461
0.0000231257
0.0000347522
0.0000464173
0.0000580938
0.0000697389
0.0000812964
0.0000926998
0.0001038746
0.0001147395
0.0001252100
0.0001351984
0.0001446171
0.0001533776
0.0001613952
0.0001685855
0.0001748712
0.0001801761
0.0001844342
0.0001875805
0.0001895641
0.0001903334
0.0001898560
0.0001880954
0.0001850412
0.0001806724
0.0001750039
0.0001680290
0.0001597915
0.0001502954
0.0001396162
0.0001277612
0.0001148408
0.0001008533
0.0000859449
0.0000700931
0.0000534497
0.0000360683
0.0000176384
0.0000087870
0.0000180626
0.0000266947
0.0000350657
0.0000429508
0.0000504376
0.0000574046
0.0000638859
0.0000697959
0.0000751492
0.0000798860
0.0000840135
0.0000874937
0.0000903337
0.0000925134
0.0000940443
0.0000949217
0.0000951629
0.0000947765
0.0000937864
0.0000922122
0.0000900844
0.0000874314
0.0000842895
0.0000806941
0.0000766861
0.0000723059
0.0000675971
0.0000626031
0.0000573683
0.0000519360
0.0000463491
0.0000406476
0.0000348691
0.0000290468
0.0000232087
0.0000173763
0.0000115631
0.0000057732
-0.0000000000
-0.0000057733
-0.0000115631
-0.0000173763
-0.0000232088
-0.0000290469
-0.0000348692
-0.0000406477
-0.0000463492
-0.0000519361
-0.0000573683
-0.0000626031
-0.0000675971
-0.0000723059
-0.0000766861
-0.0000806941
-0.0000842895
-0.0000874314
-0.0000900844
-0.0000922122
-0.0000937864
-0.0000947764
-0.0000951629
-0.0000949216
-0.0000940443
-0.0000925134
-0.0000903336
-0.0000874936
-0.0000840135
-0.0000798859
-0.0000751491
-0.0000697959
-0.0000638858
-0.0000574045
-0.0000504376
-0.0000429508
-0.0000350657
-0.0000266947
-0.0000180626
-0.0000087870
-0.0000000000
-0.0000000000
-0.0000000000
-0.0000000000
-0.0000000000
-0.0000000000
-0.0000000000
-0.0000000000
-0.0000000000
-0.0000000000
-0.0000000000
-0.0000000000
-0.0000000000
-0.0000000000
-0.0000000000
-0.0000000000
-0.0000000000
-0.0000000000
-0.0000000000
-0.0000000000
-0.0000000000
-0.0000000000
-0.0000000000
-0.0000000000
-0.0000000000
-0.0000000000
-0.0000000000
-0.0000000000
-0.0000000000
-0.0000000000
-0.0000000000
-0.0000000000
-0.0000000000
-0.0000000000
-0.0000000000
-0.0000000000
-0.0000000000
-0.0000000000
-0.0000000000
-0.0000000000
-0.0000000000
-0.0000000000
-0.0000000000
-0.0000000000
-0.0000000000
-0.0000000000
-0.0000000000
-0.0000000000
-0.0000000000
-0.0000000000
-0.0000000000
-0.0000000000
-0.0000000000
-0.0000000000
-0.0000000000
-0.0000000000
-0.0000000000
-0.0000000000
-0.0000000000
-0.0000000000
-0.0000000000
-0.0000000000
-0.0000000000
-0.0000000000
-0.0000000000
-0.0000000000
-0.0000000000
-0.0000000000
-0.0000000000
-0.0000000000
-0.0000000000
-0.0000000000
-0.0000000000
-0.0000000000
-0.0000000000
-0.0000000000
-0.0000000000
-0.0000000000
-0.0000000000
-0.0000087870
-0.0000180626
-0.0000266947
-0.0000350657
-0.0000429508
-0.0000504376
-0.0000574046
-0.0000638859
-0.0000697959
-0.0000751492
-0.0000798860
-0.0000840135
-0.0000874937
-0.0000903337
-0.0000925134
-0.0000940443
-0.0000949217
-0.0000951629
-0.0000947765
-0.0000937864
-0.0000922122
-0.0000900844
-0.0000874314
-0.0000842895
-0.0000806941
-0.0000766861
-0.0000723059
-0.0000675971
-0.0000626031
-0.0000573683
-0.0000519360
-0.0000463491
-0.0000406476
-0.0000348691
-0.0000290468
-0.0000232087
-0.0000173763
-0.0000115631
-0.0000057732
0.0000000000
0.0000057733
0.0000115631
0.0000173763
0.0000232088
0.0000290469
0.0000348692
0.0000406477
0.0000463492
0.0000519361
0.0000573683
0.0000626031
0.0000675971
0.0000723059
0.0000766861
0.0000806941
0.0000842895
0.0000874314
0.0000900844
0.0000922122
0.0000937864
0.0000947764
0.0000951629
0.0000949216
0.0000940443
0.0000925134
0.0000903336
0.0000874936
0.0000840135
0.0000798859
0.0000751491
0.0000697959
0.0000638858
0.0000574045
0.0000504376
0.0000429508
0.0000350657
0.0000266947
0.0000180626
0.0000087870
SCALARS u2 float
LOOKUP_TABLE default
0.0000000000
0.0000000000
0.0000000000
0.0000000000
0.0000000000
0.0000000000
0.0000000000
0.0000000000
0.0000000000
0.0000000000
-0.0000557300
-0.0002235140
-0.0005033927
-0.0008895585
-0.0013772924
-0.0019611582
-0.0026353331
-0.0033936038
-0.0042293051
-0.0051354331
-0.0061046149
-0.0071292194
-0.0082013658
-0.0093130249
-0.0104560515
-0.0116222745
-0.0128035419
-0.0139917997
-0.0151791409
-0.0163578739
-0.0175205692
-0.0186601180
-0.0197697738
-0.0208431996
-0.0218745028
-0.0228582708
-0.0237895963
-0.0246641003
-0.0254779456
-0.0262278451
-0.0269110598
-0.0275253899
-0.0280691531
-0.0285411539
-0.0289406384
-0.0292672363
-0.0295208870
-0.0297017490
-0.0298100923
-0.0298461707
-0.0298100911
-0.0297017468
-0.0295208837
-0.0292672319
-0.0289406330
-0.0285411475
-0.0280691457
-0.0275253817
-0.0269110509
-0.0262278354
-0.0254779354
-0.0246640897
-0.0237895855
-0.0228582599
-0.0218744920
-0.0208431889
-0.0197697633
-0.0186601079
-0.0175205595
-0.0163578648
-0.0151791324
-0.0139917918
-0.0128035346
-0.0116222680
-0.0104560456
-0.0093130198
-0.0082013613
-0.0071292156
-0.0061046118
-0.0051354306
-0.0042293031
-0.0033936023
-0.0026353320
-0.0019611574
-0.0013772919
-0.0008895582
-0.0005033926
-0.0002235140
-0.0000557299
-0.0000557299
-0.0002235140
-0.0005033926
-0.0008895582
-0.0013772919
-0.0019611574
-0.0026353320
-0.0033936023
-0.0042293031
-0.0051354306
-0.0061046118
-0.0071292156
-0.0082013613
-0.0093130198
-0.0104560456
-0.0116222680
-0.0128035346
-0.0139917918
-0.0151791324
-0.0163578648
-0.0175205595
-0.0186601079
-0.0197697633
-0.0208431889
-0.0218744920
-0.0228582599
-0.0237895855
-0.0246640897
-0.0254779354
-0.0262278354
-0.0269110509
-0.0275253817
-0.0280691457
-0.0285411475
-0.0289406330
-0.0292672319
-0.0295208837
-0.0297017468
-0.0298100911
-0.0298461707
-0.0298100923
-0.0297017490
-0.0295208870
-0.0292672363
-0.0289406384
-0.0285411539
-0.0280691531
-0.0275253899
-0.0269110598
-0.0262278451
-0.0254779456
-0.0246641003
-0.0237895963
-0.0228582708
-0.0218745028
-0.0208431996
-0.0197697738
-0.0186601180
-0.0175205692
-0.0163578739
-0.0151791409
-0.0139917997
-0.0128035419
-0.0116222745
-0.0104560515
-0.0093130249
-0.0082013658
-0.0071292194
-0.0061046149
-0.0051354331
-0.0042293051
-0.0033936038
-0.0026353331
-0.0019611582
-0.0013772924
-0.0008895585
-0.0005033927
-0.0002235140
-0.0000557300
-0.0000551213
-0.0002230923
-0.0005029447
-0.0008891430
-0.0013768960
-0.0019607864
-0.0026349869
-0.0033932849
-0.0042290152
-0.0051351735
-0.0061043868
-0.0071290236
-0.0082012032
-0.0093128958
-0.0104559561
-0.0116222127
-0.0128035132
-0.0139918036
-0.0151791765
-0.0163579400
-0.0175206647
-0.0186602413
-0.0197699231
-0.0208433732
-0.0218746987
-0.0228584869
-0.0237898304
-0.0246643502
-0.0254782090
-0.0262281198
-0.0269113436
-0.0275256805
-0.0280694486
-0.0285414525
-0.0289409385
-0.0292675366
-0.0295211865
-0.0297020474
-0.0298103895
-0.0298464674
-0.0298103883
-0.0297020452
-0.0295211832
-0.0292675322
-0.0289409330
-0.0285414461
-0.0280694413
-0.0275256723
-0.0269113346
-0.0262281102
-0.0254781989
-0.0246643397
-0.0237898196
-0.0228584760
-0.0218746879
-0.0208433625
-0.0197699127
-0.0186602312
-0.0175206550
-0.0163579309
-0.0151791680
-0.0139917957
-0.0128035060
-0.0116222062
-0.0104559502
-0.0093128907
-0.0082011987
-0.0071290198
-0.0061043837
-0.0051351709
-0.0042290132
-0.0033932834
-0.0026349858
-0.0019607856
-0.0013768955
-0.0008891427
-0.0005029446
-0.0002230922
-0.0000551212
-0.0000549182
-0.0002229516
-0.0005027957
-0.0008890043
-0.0013767642
-0.0019606623
-0.0026348717
-0.0033931784
-0.0042289187
-0.0051350868
-0.0061043109
-0.0071289583
-0.0082011490
-0.0093128527
-0.0104559243
-0.0116221920
-0.0128035037
-0.0139918049
-0.0151791884
-0.0163579621
-0.0175206965
-0.0186602823
-0.0197699729
-0.0208434311
-0.0218747640
-0.0228585590
-0.0237899085
-0.0246644335
-0.0254782969
-0.0262282113
-0.0269114382
-0.0275257774
-0.0280695471
-0.0285415520
-0.0289410385
-0.0292676367
-0.0295212864
-0.0297021469
-0.0298104885
-0.0298465663
-0.0298104874
-0.0297021446
-0.0295212831
-0.0292676323
-0.0289410331
-0.0285415456
-0.0280695398
-0.0275257692
-0.0269114292
-0.0262282017
-0.0254782867
-0.0246644230
-0.0237898977
-0.0228585481
-0.0218747532
-0.0208434204
-0.0197699625
-0.0186602722
-0.0175206868
-0.0163579530
-0.0151791799
-0.0139917970
-0.0128034965
-0.0116221855
-0.0104559185
-0.0093128476
-0.0082011446
-0.0071289545
-0.0061043077
-0.0051350842
-0.0042289167
-0.0033931769
-0.0026348706
-0.0019606615
-0.0013767637
-0.0008890040
-0.0005027955
-0.0002229515
-0.0000549182
-0.0000551213
-0.0002230923
-0.0005029447
-0.0008891430
-0.0013768960
-0.0019607864
-0.0026349869
-0.0033932849
-0.0042290152
-0.0051351735
-0.0061043868
-0.0071290236
-0.0082012032
-0.0093128958
-0.0104559561
-0.0116222127
-0.0128035132
-0.0139918036
-0.0151791765
-0.0163579400
-0.0175206647
-0.0186602413
-0.0197699231
-0.0208433732
-0.0218746987
-0.0228584869
-0.0237898304
-0.0246643502
-0.0254782090
-0.0262281198
-0.0269113436
-0.0275256805
-0.0280694486
-0.0285414525
-0.0289409385
-0.0292675366
-0.0295211865
-0.0297020474
-0.0298103895
-0.0298464674
-0.0298103883
-0.0297020452
-0.0295211832
-0.0292675322
-0.0289409330
-0.0285414461
-0.0280694413
-0.0275256723
-0.0269113346
-0.0262281102
-0.0254781989
-0.0246643397
-0.0237898196
-0.0228584760
-0.0218746879
-0.0208433625
-0.0197699127
-0.0186602312
-0.0175206550
-0.0163579309
-0.0151791680
-0.0139917957
-0.0128035060
-0.0116222062
-0.0104559502
-0.0093128907
-0.0082011987
-0.0071290198
-0.0061043837
-0.0051351709
-0.0042290132
-0.0033932834
-0.0026349858
-0.0019607856
-0.0013768955
-0.0008891427
-0.0005029446
-0.0002230922
-0.0000551212
