<?xml version="1.0" encoding="UTF-8"?>
<VTKFile type="UnstructuredGrid" version="0.1" byte_order="LittleEndian">
<UnstructuredGrid>
<Piece NumberOfPoints="9300" NumberOfCells="16740">
<PointData>
<DataArray type="Float64" Name="u2" Format="ascii">
-1.4866009849354559E-5
-1.4783286050664035E-5
-1.4701499604503825E-5
-1.4620650510873928E-5
-1.4927021790374184E-5
-1.4844516798430477E-5
-1.476294915901708E-5
-1.4986974647848934E-5
-1.4904688462652042E-5
-1.5045868421778808E-5
-1.529907149407851E-5
-1.521371022074607E-5
-1.512930919664617E-5
-1.5355418649197555E-5
-1.5270335104153923E-5
-1.5186211808342829E-5
-1.5410772677587633E-5
-1.5325966860832814E-5
-1.5465133579248755E-5
-1.5124001967197111E-5
-1.5212217975326783E-5
-1.530144182208347E-5
-1.539167350746717E-5
-1.5064741265983352E-5
-1.5153219877439078E-5
-1.524270632752181E-5
-1.5004360138687002E-5
-1.5093101353468777E-5
-1.4942858585308056E-5
-1.4428474803625077E-5
-1.4347932584804038E-5
-1.4268324550738162E-5
-1.4189650701427447E-5
-1.4493660107826793E-5
-1.4413286520486513E-5
-1.4333847117901391E-5
-1.4557718676909745E-5
-1.447751372105022E-5
-1.468004362484493E-5
-1.4766655238211627E-5
-1.4854260225032671E-5
-1.4617081499994175E-5
-1.4703908736889426E-5
-1.4791729347239014E-5
-1.4552952844766209E-5
-1.4639995705190011E-5
-1.4487657659161035E-5
-1.5722868504786108E-5
-1.5636005304096074E-5
-1.555009366225029E-5
-1.577560814336298E-5
-1.5689062038689654E-5
-1.560346749286057E-5
-1.582741334586197E-5
-1.5741184337205345E-5
-1.587828411228307E-5
-1.5560907206267408E-5
-1.565088164045688E-5
-1.57418823862375E-5
-1.583390944360928E-5
-1.5505566862507744E-5
-1.559585445543758E-5
-1.5687168359958564E-5
-1.5449155629574333E-5
-1.553975638124453E-5
-1.3983560558156577E-5
-1.3905803220852734E-5
-1.38289636705416E-5
-1.375304190722317E-5
-1.4053457045412244E-5
-1.3975808485383095E-5
-1.3899077712346644E-5
-1.4122153759835869E-5
-1.4044613977081407E-5
-1.422546647698011E-5
-1.4311876570878152E-5
-1.4399273631605126E-5
-1.4160246712241197E-5
-1.4246845691980604E-5
-1.433443163854894E-5
-1.4093847485328909E-5
-1.4180635350909677E-5
-1.4026268796243238E-5
-1.614204484110524E-5
-1.6053151393702943E-5
-1.596523115076222E-5
-1.619062889932201E-5
-1.6102104493295387E-5
-1.601455329173033E-5
-1.623833293514605E-5
-1.6150177570495095E-5
-1.628515694857736E-5
-1.5992498259325623E-5
-1.6083773183719064E-5
-1.6176067442410772E-5
-1.6269381035400755E-5
-1.5940651458070946E-5
-1.6032279560993273E-5
-1.612492699821387E-5
-1.5887788519498833E-5
-1.597976980095005E-5
-1.3526186046904381E-5
-1.3453592396918735E-5
-1.338186320261927E-5
-1.3310998464005988E-5
-1.3603110743641317E-5
-1.3530530967671892E-5
-1.3458815647388645E-5
-1.367872936374758E-5
-1.3606163461794376E-5
-1.3768191910367076E-5
-1.385324507727084E-5
-1.3939270705896228E-5
-1.3699639969688336E-5
-1.3784839798019778E-5
-1.3871012088072837E-5
-1.362987301874903E-5
-1.3715219508508145E-5
-1.3558891057549157E-5
-1.6554120748593044E-5
-1.646349059988079E-5
-1.6373835999875558E-5
-1.6598765289219026E-5
-1.6508548901590245E-5
-1.641930806266849E-5
-1.6642589320046255E-5
-1.6552786693500955E-5
-1.6685592841074734E-5
-1.6416388028940166E-5
-1.6509210595504787E-5
-1.660304905539696E-5
-1.669790340861667E-5
-1.6368341933873983E-5
-1.6461561707053318E-5
-1.655579737356019E-5
-1.631933960269418E-5
-1.6412956582488224E-5
-1.3069048583457224E-5
-1.2999768456536128E-5
-1.2931317965270093E-5
-1.2863697109659117E-5
-1.315107279767241E-5
-1.3081740182835417E-5
-1.3013237203653479E-5
-1.3231722757855334E-5
-1.3162337655102438E-5
-1.2694609151605953E-5
-1.2599369340715929E-5
-1.2504934234517647E-5
-1.2411303833011107E-5
-1.2751728214567112E-5
-1.2656719306396981E-5
-1.2562515102918587E-5
-1.2808090867251498E-5
-1.271331286180126E-5
-1.3283571233349139E-5
-1.3374359465826904E-5
-1.3466132740560242E-5
-1.3218710417711574E-5
-1.330969760644563E-5
-1.3401669837435257E-5
-1.3152759945916344E-5
-1.3243946090906693E-5
-1.3085719817963454E-5
-1.696037728298631E-5
-1.686779712453134E-5
-1.677620231056081E-5
-1.7000820991476578E-5
-1.6908704016579888E-5
-1.6817572386167636E-5
-1.704050630393806E-5
-1.6948852512599645E-5
-1.7079433220370757E-5
-1.683335320776891E-5
-1.692765099625767E-5
-1.7022964609875558E-5
-1.711929404862257E-5
-1.678910235696719E-5
-1.6883841395753056E-5
-1.697959625966804E-5
-1.6743952423916442E-5
-1.683913271299941E-5
-1.2340171344657103E-5
-1.221020942295478E-5
-1.2081490917791991E-5
-1.195401582916874E-5
-1.2364207263772258E-5
-1.2234896799811582E-5
-1.2106829752390432E-5
-1.2387918093223592E-5
-1.2259259087004557E-5
-1.2767251044137377E-5
-1.2872018386094896E-5
-1.2978174644036922E-5
-1.2714810184470104E-5
-1.282001376078059E-5
-1.2926606253075578E-5
-1.2661386194828176E-5
-1.2767026005491627E-5
-1.2606979075211593E-5
-1.7358919828998514E-5
-1.726476076777378E-5
-1.717159856489786E-5
-1.7395491490465682E-5
-1.730184162646929E-5
-1.7209188620821708E-5
-1.7431358868441128E-5
-1.7338218201673075E-5
-1.7466521962924853E-5
-1.724326103638813E-5
-1.7338951665844675E-5
-1.7435655700861596E-5
-1.7533373141438896E-5
-1.7202780215791736E-5
-1.7298954811681244E-5
-1.7396142813131127E-5
-1.716145788653655E-5
-1.725811644885902E-5
-1.1864351544222221E-5
-1.173901452458607E-5
-1.161489658523908E-5
-1.1491997726181252E-5
-1.1894648438495446E-5
-1.1769892281514213E-5
-1.164635520482214E-5
-1.192453653347762E-5
-1.1800361239151302E-5
-1.2281033963230799E-5
-1.2388541281416614E-5
-1.2497189652076879E-5
-1.2229122247243288E-5
-1.2337001882240412E-5
-1.2446022569711981E-5
-1.2176390634569942E-5
-1.2284642586378374E-5
-1.2122839125210762E-5
-1.774977943543606E-5
-1.7654383024276776E-5
-1.7559963866773037E-5
-1.778273200107837E-5
-1.7687878338070636E-5
-1.7594001928718447E-5
-1.781504095254264E-5
-1.7720730037686458E-5
-1.7846706289828877E-5
-1.7645715112077486E-5
-1.7742784807295872E-5
-1.784086753633361E-5
-1.7939963299190685E-5
-1.7609051570761252E-5
-1.7706648699507037E-5
-1.7805258862072165E-5
-1.7571604247215053E-5
-1.7669728809488237E-5
-1.1386895277912829E-5
-1.1265146028092174E-5
-1.1144657533422693E-5
-1.1025429793904382E-5
-1.1422424405949176E-5
-1.1301216865998652E-5
-1.1181270081199296E-5
-1.1457458555371984E-5
-1.1336792725291588E-5
-1.1762711336717142E-5
-1.1881486671467323E-5
-1.2001529267631863E-5
-1.1720306873152123E-5
-1.183958003969387E-5
-1.196012046764997E-5
-1.1677244495180673E-5
-1.179701549351398E-5
-1.163352420280279E-5
-1.8133540357106798E-5
-1.803693897228045E-5
-1.794132761652114E-5
-1.816290038074787E-5
-1.8066884750121188E-5
-1.7971859148561537E-5
-1.8191664935532006E-5
-1.8096235059104984E-5
-1.8219834021459205E-5
-1.8040609071990393E-5
-1.8139025692481048E-5
-1.8238452690217062E-5
-1.8338890065198434E-5
-1.8007784974437297E-5
-1.8106771753060525E-5
-1.8206768908929103E-5
-1.7974236383504064E-5
-1.8073793320259858E-5
-1.0907945597197682E-5
-1.0788876972214226E-5
-1.0671061030624509E-5
-1.0554497772428529E-5
-1.0947659610342751E-5
-1.0829082977557372E-5
-1.0711759028165728E-5
-1.0986821009244984E-5
-1.0868736368657682E-5
-1.1268524047753054E-5
-1.1388909607363603E-5
-1.1510576325713512E-5
-1.1226070200126054E-5
-1.1346947749382122E-5
-1.146910645737755E-5
-1.11829715891021E-5
-1.1304341128003687E-5
-1.1139228214681197E-5
-1.8508014717092484E-5
-1.841098858140129E-5
-1.8314928349523534E-5
-1.8534479635010768E-5
-1.8438062121808788E-5
-1.8342610512420235E-5
-1.856039425429292E-5
-1.846458536358015E-5
-1.8585758574938944E-5
-1.8427703627732293E-5
-1.8527457981298394E-5
-1.8628217510095796E-5
-1.8729982214124487E-5
-1.8398761920276344E-5
-1.8499128707761124E-5
-1.8600500670477196E-5
-1.8369157399431725E-5
-1.8470136620835184E-5
-1.042532719939541E-5
-1.0308771597031253E-5
-1.0193460502746618E-5
-1.0079393916541497E-5
-1.0468990907880786E-5
-1.0352879176405123E-5
-1.0238011953008972E-5
-1.0512047765558494E-5
-1.0396379904971319E-5
-1.0779486042921945E-5
-1.0898109117396108E-5
-1.1018023174649193E-5
-1.0733740664282866E-5
-1.0852817794219129E-5
-1.0973185906934308E-5
-1.0687302163598875E-5
-1.0806833348997232E-5
-1.0640170540869968E-5
-1.8880159608898132E-5
-1.8781055969827963E-5
-1.868292229184156E-5
-1.8902027489820658E-5
-1.88035836283687E-5
-1.8706109728000513E-5
-1.892341940409084E-5
-1.8825635320257097E-5
-1.894433535170869E-5
-1.8807351294987594E-5
-1.8908258458969114E-5
-1.901016590845355E-5
-1.9113073643440892E-5
-1.8782165832736382E-5
-1.8883725859460264E-5
-1.898628617168705E-5
-1.8756376139115346E-5
-1.8858589028581584E-5
-9.938759000982126E-6
-9.824710386565635E-6
-9.711894026737387E-6
-9.600309921497384E-6
-9.986295731262738E-6
-9.872641988087848E-6
-9.760220499501197E-6
-1.0033174036449196E-5
-9.919915164515905E-6
-1.0285654345774593E-5
-1.0402552090368915E-5
-1.0520724155400705E-5
-1.0236689901906235E-5
-1.0353995716717619E-5
-1.0472575851966472E-5
-1.0186994842507284E-5
-1.0304708727535731E-5
-1.0136569167577746E-5
-1.9241869671189227E-5
-1.914173335837711E-5
-1.90425552518836E-5
-1.9260140159404375E-5
-1.9160697969186414E-5
-1.9062213985287055E-5
-1.9277991392106326E-5
-1.917924332448252E-5
-1.9295423369295077E-5
-1.9177235088822595E-5
-1.9279824602907806E-5
-1.9383413335966742E-5
-1.9488001287999405E-5
-1.9156380439385626E-5
-1.9259671337414065E-5
-1.9363961454416232E-5
-1.913499329092506E-5
-1.923898557289673E-5
-9.445684948865057E-6
-9.335062388599201E-6
-9.225645946013218E-6
-9.117435621107103E-6
-9.497947209116712E-6
-9.38765819937578E-6
-9.278575307314715E-6
-9.549488866660821E-6
-9.439533407444811E-6
-9.792444029356791E-6
-9.905897933668864E-6
-1.0020606313075846E-5
-9.73864215774093E-6
-9.852441393541432E-6
-9.967495104436847E-6
-9.684041685846406E-6
-9.79818625313534E-6
-9.628642613673217E-6
-1.9592873511842206E-5
-1.949276904369872E-5
-1.939361899618301E-5
-1.960859701542039E-5
-1.9509212148275217E-5
-1.9410781701757817E-5
-1.9623933449094294E-5
-1.9525268182947434E-5
-1.9638882812863926E-5
-1.9540488860398E-5
-1.9644186037706816E-5
-1.9748890903019893E-5
-1.9854603456337238E-5
-1.952346791746766E-5
-1.9627912572044723E-5
-1.973336491462604E-5
-1.9505972060001465E-5
-1.9611164191846767E-5
-8.954424022676606E-6
-8.845394942659423E-6
-8.73757430348717E-6
-8.630962105159847E-6
-9.009520624134044E-6
-8.900789590671534E-6
-8.793266998053951E-6
-9.063857823610876E-6
-8.955424836703038E-6
-9.290879591982569E-6
-9.402195782188424E-6
-9.514783456085308E-6
-9.23364596711865E-6
-9.345268185039852E-6
-9.458161886652075E-6
-9.175556336131241E-6
-9.287484581767787E-6
-9.116610699020342E-6
-1.9939224585057186E-5
-1.9838162743012394E-5
-1.9738048818947975E-5
-1.9951338979652696E-5
-1.9851032827945857E-5
-1.9751674594219388E-5
-1.9963123052051227E-5
-1.9863572590682343E-5
-1.9974576802252783E-5
-1.9898919706753397E-5
-2.0002563688621228E-5
-2.0107165321866012E-5
-2.021272460648775E-5
-1.9884575639704345E-5
-1.9988977836616473E-5
-2.0094337684905552E-5
-1.986980355623229E-5
-1.9974963968188715E-5
-8.457115356825656E-6
-8.350578499908397E-6
-8.245232888811678E-6
-8.141078523535495E-6
-8.51586957476493E-6
-8.409581724306262E-6
-8.304485119668131E-6
-8.573818490876325E-6
-8.467779646876251E-6
-8.783170850673658E-6
-8.893063831495324E-6
-9.004210447610885E-6
-8.72322550491505E-6
-8.833382925021405E-6
-8.944793980421653E-6
-8.662397933609339E-6
-8.772819793000382E-6
-8.600688136756521E-6
-2.0276911265210016E-5
-2.0175220200080035E-5
-2.0074442045760962E-5
-2.0285671902199975E-5
-2.0184758442128046E-5
-2.008475789286701E-5
-2.0294159300617984E-5
-2.0194023445604097E-5
-2.0302373460464027E-5
-2.0246693107237862E-5
-2.0350926070933903E-5
-2.045609846847322E-5
-2.056221029985581E-5
-2.023574302051108E-5
-2.0340764669831197E-5
-2.0446725752994587E-5
-2.0224420186927707E-5
-2.0330230521871906E-5
-7.955295958142273E-6
-7.851701671327869E-6
-7.749260044598705E-6
-7.647971077954783E-6
-8.018070925793228E-6
-7.914667855497167E-6
-7.812417445286345E-6
-8.079998447590968E-6
-7.976786593813252E-6
-8.27521867879927E-6
-8.382465885143979E-6
-8.490955704463061E-6
-8.211445498581733E-6
-8.318905363434576E-6
-8.427607841261796E-6
-8.146736424658362E-6
-8.254408948019345E-6
-8.081091457029161E-6
-2.0605807250997676E-5
-2.0503771111136278E-5
-2.0402626514291725E-5
-2.061147692185276E-5
-2.0510242475215987E-5
-2.040989957159606E-5
-2.0616922160994532E-5
-2.0516489407582384E-5
-2.0622142968423E-5
-2.0585986681789177E-5
-2.069069002486218E-5
-2.079633152880832E-5
-2.0902911193627625E-5
-2.0578383443486816E-5
-2.0683911812294324E-5
-2.0790378341974977E-5
-2.0570457982842362E-5
-2.067681137738438E-5
-7.4548826662059976E-6
-7.352698837928557E-6
-7.251674694038383E-6
-7.151810234535479E-6
-7.520128949601821E-6
-7.418104230805191E-6
-7.317239196395827E-6
-7.584491753518083E-6
-7.482626144202263E-6
-7.762420581052826E-6
-7.867396897997753E-6
-7.973620523323198E-6
-7.695280406117915E-6
-7.800425204527004E-6
-7.90681731131661E-6
-7.62715068900655E-6
-7.732463968879804E-6
-7.558031429718736E-6
-2.0928361770159467E-5
-2.0825418136808155E-5
-2.0723345202895997E-5
-2.0930322992737063E-5
-2.0828211909825456E-5
-2.0726971526353003E-5
-2.0932122186459378E-5
-2.083084365398748E-5
-2.0933759351326414E-5
-2.091761306013531E-5
-2.1022402389123334E-5
-2.1128092360336913E-5
-2.1234682973776055E-5
-2.0912984356519323E-5
-2.1018616216422613E-5
-2.112514871855146E-5
-2.0908083734350085E-5
-2.101455812516865E-5
-6.947364442374018E-6
-6.848038522606017E-6
-6.7498444999666856E-6
-6.652782374456027E-6
-7.0164403052945035E-6
-6.917219947206386E-6
-6.8191314862469395E-6
-7.084588902681657E-6
-6.985474106273426E-6
-7.244476640622616E-6
-7.347780837667462E-6
-7.452299100699502E-6
-7.174557161980972E-6
-7.277984304028647E-6
-7.382625512063513E-6
-7.103630339744275E-6
-7.207180426794776E-6
-7.031696173912524E-6
-2.124354788415378E-5
-2.113943808497432E-5
-2.1036175240698532E-5
-2.124149108527412E-5
-2.1138246714815464E-5
-2.1035849299260474E-5
-2.1239342011193852E-5
-2.1136963069456E-5
-2.123710066191297E-5
-2.1241198212296984E-5
-2.1345712466828796E-5
-2.1451107927119046E-5
-2.1557384593167718E-5
-2.123925844989258E-5
-2.1344636297267393E-5
-2.145089535040063E-5
-2.1237086703718935E-5
-2.1343328143936745E-5
-6.4370839096781E-6
-6.340645003605641E-6
-6.245318063652373E-6
-6.151103089818291E-6
-6.509959435782078E-6
-6.4135738777113415E-6
-6.318300285759791E-6
-6.581858924041387E-6
-6.485526713972371E-6
-6.726744290954983E-6
-6.827203259028043E-6
-6.928853886680557E-6
-6.652993013370251E-6
-6.7535197991281215E-6
-6.855238244465445E-6
-6.578186342500599E-6
-6.67878094594328E-6
-6.502324278346026E-6
-2.1548326107084934E-5
-2.144375001277074E-5
-2.134000819771342E-5
-2.1542938105612687E-5
-2.1439257758974706E-5
-2.133641169159359E-5
-2.1537512307261853E-5
-2.1434727708300084E-5
-2.153204871203244E-5
-2.155613746816848E-5
-2.1660192477552376E-5
-2.1765106633045502E-5
-2.1870879934647857E-5
-2.1556747639269438E-5
-2.1661684455968257E-5
-2.1767480418776298E-5
-2.1557163347602518E-5
-2.1662981971616258E-5
-5.923613973738155E-6
-5.830318840177993E-6
-5.7381095169253915E-6
-5.646986003980356E-6
-6.00046884303556E-6
-5.9071714922424465E-6
-5.814959951756894E-6
-6.076298548395606E-6
-5.982998980369541E-6
-6.207968320064823E-6
-6.304932177810607E-6
-6.403050830571007E-6
-6.129805417389566E-6
-6.2267730781534665E-6
-6.324895533931981E-6
-6.050536048285879E-6
-6.147507512067894E-6
-5.970160212753759E-6
-2.1847380841670367E-5
-2.1741469479267217E-5
-2.1636358769387904E-5
-2.183770874641475E-5
-2.1732724386662685E-5
-2.162854067943446E-5
-2.182807625700514E-5
-2.172401889990416E-5
-2.1818483373441534E-5
-2.1865108927568488E-5
-2.196759657942663E-5
-2.207090459278694E-5
-2.2175032967649424E-5
-2.186721221574505E-5
-2.19705802112626E-5
-2.2074768568282312E-5
-2.1869135884771507E-5
-2.1973384223948462E-5
-5.408680369639706E-6
-5.318267179975629E-6
-5.228921879848029E-6
-5.140644469256909E-6
-5.489189885968546E-6
-5.398722915655772E-6
-5.309323834879475E-6
-5.568625097415429E-6
-5.478104346453958E-6
-5.6846095900601055E-6
-5.778663769727916E-6
-5.873847310625801E-6
-5.6027068629249365E-6
-5.696709737915961E-6
-5.791841974137057E-6
-5.5196531280295065E-6
-5.613604698343743E-6
-5.4354483853738144E-6
-2.2137682750243946E-5
-2.20306276462253E-5
-2.192422785395783E-5
-2.2123770015121108E-5
-2.2017617566010814E-5
-2.1912120428651687E-5
-2.2109973348340988E-5
-2.200472355413904E-5
-2.2096292749903586E-5
-2.2329685938680458E-5
-2.225136939499475E-5
-2.217357166540246E-5
-2.2342037882169546E-5
-2.2264276823577996E-5
-2.218703457907985E-5
-2.2353933104019115E-5
-2.2276727530521716E-5
-2.2365371604229162E-5
-2.217615567125906E-5
-2.227323941366168E-5
-2.2371092622191072E-5
-2.2469715296847213E-5
-2.2176036369415935E-5
-2.2273947073495205E-5
-2.2372627243701225E-5
-2.2175662134879393E-5
-2.22743998006353E-5
-4.8922171786281145E-6
-4.804537660005297E-6
-4.717894804600868E-6
-4.632288612414829E-6
-4.976134052217348E-6
-4.8883503706686375E-6
-4.801603352338316E-6
-5.058943149093612E-6
-4.971055304619009E-6
-5.15883639981404E-6
-5.249937658884925E-6
-5.3421416540715164E-6
-5.0732289768807085E-6
-5.1642236369007766E-6
-5.25632103303655E-6
-4.986427101182547E-6
-5.077315162151798E-6
-4.898430772719555E-6
-2.2567612838014255E-5
-2.2499387932516926E-5
-2.2431974187921896E-5
-2.2587846524760777E-5
-2.252010464771102E-5
-2.245317393156356E-5
-2.2607175887233393E-5
-2.253991703863121E-5
-2.2625600925432114E-5
-2.2462470645717016E-5
-2.255878697753555E-5
-2.2656226639287335E-5
-2.2754789630972367E-5
-2.2465197755352874E-5
-2.256250314407135E-5
-2.266093186272307E-5
-2.2467612639062938E-5
-2.2565907084681356E-5
-4.372398574357735E-6
-4.287960323080861E-6
-4.2045369720681624E-6
-4.122128521319641E-6
-4.460190398084102E-6
-4.375591970791666E-6
-4.292008443763406E-6
-4.546820410769799E-6
-4.462061807461803E-6
-4.630935473105719E-6
-4.719026087240298E-6
-4.8081911871115766E-6
-4.541642616613571E-6
-4.629571120808736E-6
-4.718574110740601E-6
-4.451113172798459E-6
-4.538879567054213E-6
-4.359347141660386E-6
-2.282974517044338E-5
-2.2760904649106577E-5
-2.2692856567436154E-5
-2.2846287229529523E-5
-2.277796469045823E-5
-2.2710434591053307E-5
-2.2862000694049008E-5
-2.2794196137243226E-5
-2.2876885564001838E-5
-2.2784372280555644E-5
-2.286558500801805E-5
-2.2947512331185975E-5
-2.303015425005942E-5
-2.2775090230099262E-5
-2.2856960323014895E-5
-2.2939545011636043E-5
-2.2765229346904833E-5
-2.28477568052737E-5
-3.85156075406006E-6
-3.77017859990626E-6
-3.6897817307170344E-6
-3.6103701464923833E-6
-3.942952956823773E-6
-3.861357063134459E-6
-3.780746454409719E-6
-4.0331422125769664E-6
-3.951332579352139E-6
-4.101134203862532E-6
-4.186160637112277E-6
-4.272231616378228E-6
-4.008178520593395E-6
-4.092987035761484E-6
-4.178840096945778E-6
-3.913945330414663E-6
-3.998535927501096E-6
-3.818434633326338E-6
-2.3088586953907576E-5
-2.3017209188457938E-5
-2.2946642058489356E-5
-2.309947450645815E-5
-2.302869008543962E-5
-2.2958716299902143E-5
-2.310965385949015E-5
-2.303946278290273E-5
-2.3119125013003574E-5
-2.3050880634229934E-5
-2.313163737169616E-5
-2.3213235252958786E-5
-2.3295674278017833E-5
-2.3044584105345958E-5
-2.3126052590468257E-5
-2.3208362219386963E-5
-2.3037675310622455E-5
-2.3119855543400833E-5
-3.329346110136666E-6
-3.251018611466769E-6
-3.1736424492523774E-6
-3.097217623493491E-6
-3.4242590391321127E-6
-3.3456649608383965E-6
-3.2680222190001843E-6
-3.517933717917352E-6
-3.4390730599998157E-6
-3.5696578245669837E-6
-3.65157037227007E-6
-3.7344959751898556E-6
-3.4730646787554698E-6
-3.554703388569722E-6
-3.637355153600672E-6
-3.3751545287126466E-6
-3.456519400638065E-6
-3.275927374438516E-6
-2.3333297360199274E-5
-2.3261109313482426E-5
-2.3189718531083863E-5
-2.3340234979467738E-5
-2.3268679802255105E-5
-2.319792188936075E-5
-2.3346544483413244E-5
-2.327562217570483E-5
-2.3352225872035796E-5
-2.3308374441015287E-5
-2.3388516560038065E-5
-2.346947254444174E-5
-2.355124239422631E-5
-2.3304712896352728E-5
-2.3385580761578613E-5
-2.346726249218538E-5
-2.330047950868691E-5
-2.338207312011589E-5
-2.8045469157967383E-6
-2.7297485110160824E-6
-2.6558567041167676E-6
-2.5828714950987953E-6
-2.903375776258867E-6
-2.8282533437224216E-6
-2.7540375090673173E-6
-3.0009326788244516E-6
-2.925486218532216E-6
-3.0363164279055723E-6
-3.1152072202809445E-6
-3.1950775357919255E-6
-2.9362466420333896E-6
-3.0148096304894253E-6
-3.094352142081069E-6
-2.834826333591013E-6
-2.9130615181277123E-6
-2.7320555025784437E-6
-2.3569942061168692E-5
-2.3496577076114223E-5
-2.342400501306992E-5
-2.3572532744560866E-5
-2.349984877015564E-5
-2.3427957717760584E-5
-2.3574584687060346E-5
-2.350258172330437E-5
-2.3576097888667132E-5
-2.3561253279235154E-5
-2.3638954355124204E-5
-2.371745439097254E-5
-2.379675338678017E-5
-2.35585171231702E-5
-2.3636928976265534E-5
-2.3716139789320152E-5
-2.355518016150058E-5
-2.3634302791802202E-5
-2.2791727418017724E-6
-2.2077596163415392E-6
-2.1372116329944424E-6
-2.0675287917604836E-6
-2.3817097026385424E-6
-2.3099176092052017E-6
-2.2389906578849978E-6
-2.4829426204042164E-6
-2.4107715589977686E-6
-2.5013763368896646E-6
-2.577315933061552E-6
-2.6542089882911455E-6
-2.3979899031680794E-6
-2.4735482820785713E-6
-2.550060120046768E-6
-2.293213096947067E-6
-2.368390258596163E-6
-2.187045918226627E-6
-2.379385982624831E-5
-2.372050033096467E-5
-2.364791301843761E-5
-2.3793270824183725E-5
-2.372061649222816E-5
-2.3648734343029176E-5
-2.379220131692773E-5
-2.372025214830025E-5
-2.3790651304480333E-5
-2.3796458028130862E-5
-2.3874218089627692E-5
-2.395276608789254E-5
-2.4032102022925413E-5
-2.379709926943769E-5
-2.387560015408527E-5
-2.395488897550087E-5
-2.3797197722320795E-5
-2.387643943011913E-5
-1.7524338596015033E-6
-1.684582996953641E-6
-1.6175664142659536E-6
-1.5513841115384416E-6
-1.8588210043839148E-6
-1.7905317046409546E-6
-1.7230766848581689E-6
-1.963852648436908E-6
-1.8951249115988499E-6
-1.964001382507438E-6
-2.0374217440795426E-6
-2.1117699226526056E-6
-1.8577914648268322E-6
-1.930783852375195E-6
-2.0047040569245152E-6
-1.7501643894745143E-6
-1.8227288029991353E-6
-1.6411201564504846E-6
-2.400994263444497E-5
-2.3936089050028147E-5
-2.3862991940039933E-5
-2.400563298751484E-5
-2.39325192373394E-5
-2.3860161961592563E-5
-2.400091819316709E-5
-2.392854427723303E-5
-2.399579825140172E-5
-2.4022017971354993E-5
-2.409963698941457E-5
-2.4178026406926082E-5
-2.425718622388953E-5
-2.4025865970952452E-5
-2.4104251385514515E-5
-2.4183407199528506E-5
-2.4029227321475923E-5
-2.4108379132540473E-5
-1.2215237385621264E-6
-1.1584517678405485E-6
-1.096152176951001E-6
-1.0346249658934845E-6
-1.3328743498131563E-6
-1.269293869075949E-6
-1.206485768170772E-6
-1.442827807471928E-6
-1.3787388167190914E-6
-1.4258069369903521E-6
-1.4966813260976007E-6
-1.568452399250978E-6
-1.3168058089698596E-6
-1.3872066116292165E-6
-1.4585040983347018E-6
-1.2063685274663317E-6
-1.2762957436777967E-6
-1.0944950924797682E-6
-2.421590862695665E-5
-2.414179798883824E-5
-2.406842786365326E-5
-2.420809434233372E-5
-2.413475444430202E-5
-2.4062155059203752E-5
-2.4199943641880913E-5
-2.412737448393593E-5
-2.4191456525598245E-5
-2.4237486489324054E-5
-2.4314874757219173E-5
-2.439301507624013E-5
-2.447190744638692E-5
-2.4244484161988862E-5
-2.4322663144180514E-5
-2.440159417749799E-5
-2.4251050740177355E-5
-2.4330020436665532E-5
-6.920257637608285E-7
-6.330975316966949E-7
-5.749013650197284E-7
-5.174372637299288E-7
-8.076799164363536E-7
-7.48176095727753E-7
-6.894043404063192E-7
-9.218796504805722E-7
-8.618002411275045E-7
-8.838121512263761E-7
-9.531588255905071E-7
-1.023386472674971E-6
-7.731131845466746E-7
-8.419538299236793E-7
-9.116754480210169E-7
-6.609700051358601E-7
-7.293046215257385E-7
-5.473826129939324E-7
-2.4411531651313123E-5
-2.4337447327936555E-5
-2.4264088952698262E-5
-2.4400480456402558E-5
-2.432719366129333E-5
-2.4254632814322372E-5
-2.4389152758016346E-5
-2.4316663491174463E-5
-2.4377548556154508E-5
-2.444128721764137E-5
-2.4518846753025997E-5
-2.4597141796882838E-5
-2.4676172349211904E-5
-2.4451853563874516E-5
-2.4530236552410073E-5
-2.460935504941784E-5
-2.4462060306789697E-5
-2.4541266748476183E-5
-1.5641806698959332E-7
-1.0361726367752937E-7
-5.14779080143316E-8
0
-2.782859840856107E-7
-2.248189500458367E-7
-1.720133636549289E-7
-3.9862571633238916E-7
-3.4449245156490526E-7
-3.4034508871655946E-7
-4.0849326798658715E-7
-4.775057760790448E-7
-2.2833066011021671E-7
-2.959473534953074E-7
-3.64428375702828E-7
-1.1487985420747088E-7
-1.8196506170762462E-7
7.328991678035313E-12
-2.459688848846916E-5
-2.4523070026891826E-5
-2.4449956716120273E-5
-2.458281274484258E-5
-2.450981336241444E-5
-2.4437519130792085E-5
-2.4568517057195832E-5
-2.4496336753916894E-5
-2.455400142552892E-5
-2.4636134646911055E-5
-2.4713344210989795E-5
-2.4791264052451444E-5
-2.4869894171296006E-5
-2.464978118877758E-5
-2.4727835763016837E-5
-2.4806600614639006E-5
-2.4663127089544523E-5
-2.4742026673944308E-5
3.93615376548856E-7
4.353961885017208E-7
4.76670889809735E-7
5.174394804728987E-7
2.608159263192381E-7
3.029139939396863E-7
3.445059509152838E-7
1.2961080080295277E-7
1.7202612409098434E-7
7.951420523457582E-7
8.757979330421541E-7
9.556295524797703E-7
1.0346369106586067E-6
7.016379182390726E-7
7.82138467072345E-7
8.618147546468375E-7
6.090703942814527E-7
6.894156112516015E-7
2.2539645851212426E-7
1.5118155792108945E-7
7.605184808094072E-8
3.3143267968966786E-7
2.571599860252399E-7
1.8197248311169793E-7
4.3876876574560723E-7
3.644382790077861E-7
5.474047166799425E-7
-2.4771630713167674E-5
-2.469841249770952E-5
-2.4625869401829936E-5
-2.475483845976886E-5
-2.4682453049289936E-5
-2.461074275838958E-5
-2.4737877152059656E-5
-2.466632454655997E-5
-2.472074679004007E-5
-2.482028490175853E-5
-2.4897169769268453E-5
-2.4974738408945603E-5
-2.5052990820789984E-5
-2.483705943226089E-5
-2.491481153431834E-5
-2.499324740854302E-5
-2.485359585544005E-5
-2.493221519204503E-5
1.198778789134345E-6
1.317751685981168E-6
1.4352908947573578E-6
1.551396415462915E-6
1.14341221156958E-6
1.2617984714086417E-6
1.3787510431770705E-6
1.0886982520776673E-6
1.206497874908968E-6
8.057481138574279E-7
7.209135009361315E-7
6.347990352103031E-7
9.005963961599473E-7
8.155965287823581E-7
7.293168086002366E-7
9.968477476948449E-7
9.116826258609629E-7
1.094502168462121E-6
-2.493667192150333E-5
-2.486404869348487E-5
-2.4792073649663783E-5
-2.4917139218973357E-5
-2.484536382738583E-5
-2.477423661999567E-5
-2.4897488814135117E-5
-2.4826561258978518E-5
-2.4877720706988598E-5
-2.4995610363871902E-5
-2.5071555526501205E-5
-2.5148147544642035E-5
-2.5225386418294393E-5
-2.5014928551729838E-5
-2.509174942088101E-5
-2.516921714554371E-5
-2.5034055370702528E-5
-2.5111751946375582E-5
1.7258234803507122E-6
1.8412022951606807E-6
1.9551078801319062E-6
2.0675402352643895E-6
1.6669543504190699E-6
1.7817814938763804E-6
1.895135407494948E-6
1.6088119954564709E-6
1.7230874675611236E-6
1.3852993692646762E-6
1.2895939493264265E-6
1.1926615490589082E-6
1.4695429406793323E-6
1.3735372433963616E-6
1.2763045657841214E-6
1.5548207378786195E-6
1.4585147632509273E-6
1.6411327608625378E-6
-2.5091722854295824E-5
-2.5019768478347217E-5
-2.494843442924481E-5
-2.506950476729107E-5
-2.4998412228449794E-5
-2.4927940016454704E-5
-2.5047219944749553E-5
-2.4976989243015604E-5
-2.5024868386671273E-5
-2.5158665361659285E-5
-2.5234163523700707E-5
-2.5310278536683142E-5
-2.5387010400606587E-5
-2.518103321851966E-5
-2.5257427123843515E-5
-2.5334437880108378E-5
-2.520327357073136E-5
-2.5280563219337652E-5
2.267906543523148E-6
2.3742672908611826E-6
2.4792592181200265E-6
2.5828823252996777E-6
2.200287458245798E-6
2.3062191355392526E-6
2.4107819927535156E-6
2.1334986888262115E-6
2.2390012960750866E-6
1.940511143278454E-6
1.8420277698729138E-6
1.742234975734275E-6
2.021671208575836E-6
1.9228601929740378E-6
1.8227397566391403E-6
2.10385317041877E-6
2.0047145126207135E-6
2.187057028807256E-6
-2.5235794724030224E-5
-2.5164909614309305E-5
-2.5094600835189657E-5
-2.5211261601552296E-5
-2.5141241234309525E-5
-2.5071797197668008E-5
-2.5186707372046327E-5
-2.5117551747281693E-5
-2.516213203551231E-5
-2.531191617119593E-5
-2.5386626845086746E-5
-2.5461922220987434E-5
-2.5537802298897998E-5
-2.5337020962233266E-5
-2.541264103751134E-5
-2.548884581479927E-5
-2.5362052372036817E-5
-2.5438581848702136E-5
2.7991825512906565E-6
2.8998303078465253E-6
2.999178890263869E-6
3.0972282985426874E-6
2.7261950975426836E-6
2.826495530229764E-6
2.9254967887783186E-6
2.6540950222123576E-6
2.7540481310306495E-6
2.4939073277090847E-6
2.392972642600123E-6
2.2906892096328468E-6
2.5723159381800927E-6
2.4710328989914807E-6
2.368401111944553E-6
2.651702440078231E-6
2.5500710468099686E-6
2.7320668334035006E-6
-2.5372553589800727E-5
-2.5301854374606152E-5
-2.5231713856510013E-5
-2.5344805023898508E-5
-2.527499745131011E-5
-2.520574857582015E-5