<?xml version="1.0" encoding="UTF-8"?>
<VTKFile type="UnstructuredGrid" version="0.1" byte_order="LittleEndian">
<UnstructuredGrid>
<Piece NumberOfPoints="9300" NumberOfCells="16740">
<PointData>
<DataArray type="Float64" Name="u1" Format="ascii">
4.483118293123525E-6
4.486905094602239E-6
4.490763289882723E-6
4.494692878964976E-6
4.586113978990303E-6
4.589028507974649E-6
4.592014430760764E-6
4.68828827791081E-6
4.690330534400788E-6
4.789641189885046E-6
4.787627528148491E-6
4.7881722348343105E-6
4.788843455413162E-6
4.890270455099623E-6
4.889961668201095E-6
4.889779395195598E-6
4.99205544047236E-6
4.990893159989485E-6
5.092982484266704E-6
4.474914516747271E-6
4.472901988613105E-6
4.471049549419556E-6
4.469357199166622E-6
4.369419845720173E-6
4.366510107474045E-6
4.3637604581685316E-6
4.263068747956967E-6
4.259261799598876E-6
4.155861223457653E-6
4.185920077108879E-6
4.193355857662363E-6
4.200801226282218E-6
4.208256182968448E-6
4.289654518614478E-6
4.296183743532239E-6
4.302722556516371E-6
4.3925787858998434E-6
4.398201455181881E-6
4.169282972423444E-6
4.164690376983108E-6
4.160216460661177E-6
4.064243284393107E-6
4.0587415444030095E-6
4.053358483531317E-6
3.958384536346897E-6
3.951973651807038E-6
3.851706728284813E-6
5.101637292686203E-6
5.09856793655258E-6
5.095683000412747E-6
5.203483305359052E-6
5.199598663411851E-6
5.195898441458438E-6
5.3044707080024E-6
5.29977078024162E-6
5.404599500616248E-6
4.78960723712395E-6
4.790221255535337E-6
4.79103843175336E-6
4.792058765778021E-6
4.683754837402962E-6
4.683482846315636E-6
4.683414013034945E-6
4.57700482475052E-6
4.57584682416448E-6
3.8976672912479714E-6
3.9086459389411075E-6
3.919572376620206E-6
3.930446604285266E-6
4.001980672149626E-6
4.012026293951946E-6
4.022019705740226E-6
4.105510302723118E-6
4.114622898634621E-6
3.869656454949555E-6
3.863569673508978E-6
3.857586431287398E-6
3.7662298068539104E-6
3.7592343627344282E-6
3.7523424578339397E-6
3.662019250190929E-6
3.654115143392539E-6
3.5570247849606087E-6
5.42159193160978E-6
5.415697503089857E-6
5.4100333594253455E-6
5.523414155246713E-6
5.51671850418736E-6
5.510253137983417E-6
5.624339779128962E-6
5.616842905530177E-6
5.724368803256527E-6
5.11114931917459E-6
5.1151190016525425E-6
5.119346126197241E-6
5.123830692808687E-6
5.005693166189647E-6
5.008809903052401E-6
5.0121840819819E-6
4.89932964839079E-6
4.901593439638346E-6
3.6165737755112226E-6
3.631635361953887E-6
3.6465690931261045E-6
3.661374969027875E-6
3.721917650944643E-6
3.736031658867606E-6
3.750017811520121E-6
3.8265419272026576E-6
3.839708356605919E-6
3.5817033162921655E-6
3.573406914741452E-6
3.565180737630933E-6
3.4791936371018423E-6
3.469982916849355E-6
3.4608424210370628E-6
3.375941084102649E-6
3.3658160451483897E-6
3.2719456572945857E-6
5.751642895398155E-6
5.742265269892322E-6
5.733173905845111E-6
5.852727823572054E-6
5.8425802995952376E-6
5.832719037077045E-6
5.952902003827024E-6
5.941984581379226E-6
6.052165436163066E-6
5.441125296085395E-6
5.4486121636763406E-6
5.456414418435549E-6
5.464532060363019E-6
5.336280660642248E-6
5.342948244604888E-6
5.349931215735788E-6
5.230515792883345E-6
5.236364093217679E-6
3.34769894269277E-6
3.365689186106928E-6
3.3835051284257694E-6
3.4011467696492953E-6
3.452922334170873E-6
3.469960806167307E-6
3.486824977068424E-6
3.5574810096159076E-6
3.5735677101946185E-6
3.1656368445844367E-6
3.1600228617504196E-6
3.154763425748093E-6
3.149858536577458E-6
3.24462798138731E-6
3.2384081656076725E-6
3.2325428966597253E-6
3.3231312897422625E-6
3.316305641017005E-6
3.2867612158757012E-6
3.2816507859043567E-6
3.276712266377318E-6
3.19073929554777E-6
3.184776284382661E-6
3.178985183661857E-6
3.09401426325895E-6
3.087198670900076E-6
2.9965861190092403E-6
6.0896638731602265E-6
6.0768212821733825E-6
6.06432180317433E-6
6.189994807408545E-6
6.176410717588079E-6
6.163169739755404E-6
6.289393493826722E-6
6.2750679051726365E-6
6.387859932414762E-6
5.780361214699256E-6
5.791210006516981E-6
5.802428832307872E-6
5.8140176920719275E-6
5.6760228775654185E-6
5.686082329554524E-6
5.696511815516793E-6
5.570746492786673E-6
5.580016604947159E-6
2.9461736107909996E-6
2.9325404780733183E-6
2.91968876861704E-6
2.907618482422164E-6
3.014838091665843E-6
3.0006677280758117E-6
2.9872787877471826E-6
3.0827330669279958E-6
3.068025472465614E-6
3.0277515562905294E-6
3.017217248816025E-6
3.006828769722262E-6
2.9299490317332563E-6
2.9183427733513553E-6
2.906882343350194E-6
2.8310562721403344E-6
2.8183780628510354E-6
2.7310732775117637E-6
6.434404397121772E-6
6.418497543305613E-6
6.4029827217366085E-6
6.534334015297879E-6
6.517708334079576E-6
6.501474685108428E-6
6.6333054863197756E-6
6.61596097769933E-6
6.731318810187464E-6
6.127961694873222E-6
6.1422616459429765E-6
6.156987289396968E-6
6.172138625235196E-6
6.024267032199586E-6
6.037809819943981E-6
6.051778300072612E-6
5.919619031265821E-6
5.932404655684857E-6
2.6993596431117717E-6
2.690407023296929E-6
2.682126214254638E-6
2.6745172159848984E-6
2.769532710188308E-6
2.759990766941306E-6
2.751120634466855E-6
2.838952323291772E-6
2.8288210566126107E-6
2.7324671340138097E-6
2.731612394475295E-6
2.7311477756412795E-6
2.6475580007376733E-6
2.645919365188695E-6
2.6446708503442158E-6
2.5619029765870885E-6
2.559480445027647E-6
2.475502061562055E-6
6.790142473806036E-6
6.7700784628429365E-6
6.750470574970079E-6
6.888511893213782E-6
6.867777530181128E-6
6.847499290238713E-6
6.98593348974298E-6
6.964528774640769E-6
7.08240726339363E-6
6.484121789672972E-6
6.501847254949485E-6
6.52005380343532E-6
6.53874143513048E-6
6.3810982196758605E-6
6.398097891974372E-6
6.415578647482205E-6
6.277103831529935E-6
6.293377710850445E-6
2.4575883199317685E-6
2.4547275097220534E-6
2.4524131054775072E-6
2.4506451071981305E-6
2.5306884185594563E-6
2.5271517103566547E-6
2.5241614081190218E-6
2.6029980505771664E-6
2.5987854443812785E-6
2.4711777098180086E-6
2.4720810150775775E-6
2.473522465658926E-6
2.3915856585904078E-6
2.391743517146887E-6
2.3924395210251457E-6
2.311189888712146E-6
2.3106023005655358E-6
2.229990400183224E-6
7.14939105674905E-6
7.1265639793865236E-6
7.1042360482680495E-6
7.247564743632798E-6
7.224086481996503E-6
7.201107366604259E-6
7.344762443188674E-6
7.32063299727861E-6
7.440984155416676E-6
6.848192200599786E-6
6.86947920532201E-6
6.891304813861208E-6
6.913669026217378E-6
6.7460276231120415E-6
6.7666229815111835E-6
6.787756943727298E-6
6.642877367955606E-6
6.662781080031667E-6
2.232120136551047E-6
2.232970389825602E-6
2.2342942324299825E-6
2.2360916643641898E-6
2.3057381503445225E-6
2.305877727068515E-6
2.306490893122333E-6
2.3785798072268834E-6
2.3780087074003136E-6
2.2298501365241986E-6
2.229350477416869E-6
2.229397231969878E-6
2.1522320242777786E-6
2.1509946995969894E-6
2.1503037885765374E-6
2.0738289380470545E-6
2.071853947792805E-6
1.9946408778320255E-6
7.518506798457947E-6
7.492117210574766E-6
7.466276329561009E-6
7.615607026692459E-6
7.588607839382085E-6
7.562157358941135E-6
7.711740883971467E-6
7.6841320972339E-6
7.806908370294966E-6
7.2198832540153784E-6
7.244909648971462E-6
7.270535358262328E-6
7.296760381887971E-6
7.118808925204362E-6
7.14318157347716E-6
7.1681535360847374E-6
7.0167375159383625E-6
7.040456417527875E-6
2.016657470318096E-6
2.0210138360383227E-6
2.02577625281271E-6
2.0309447206412576E-6
2.090563501431241E-6
2.094178024728659E-6
2.0981985990802367E-6
2.163708232779939E-6
2.166580913654548E-6
2.0055420286272886E-6
2.001427019827083E-6
1.997793302895329E-6
1.927658634931831E-6
1.9227705104398125E-6
1.9183636778162445E-6
1.8489968716655851E-6
1.843335631481753E-6
1.76955673882855E-6
7.89718336404212E-6
7.866470021465337E-6
7.836378356882953E-6
7.992444907570938E-6
7.961165444996072E-6
7.930507660415603E-6
8.086729228996404E-6
8.054883646423456E-6
8.180036328318518E-6
7.599979163181165E-6
7.628613280909292E-6
7.657904408367907E-6
7.68785254555701E-6
7.499915643953846E-6
7.527932345024159E-6
7.556606055824959E-6
7.398842716856115E-6
7.426242001268614E-6
1.8113664339771305E-6
1.8189964937948125E-6
1.826969739274294E-6
1.835286170415575E-6
1.8853005559605345E-6
1.892162893903217E-6
1.8993684175076987E-6
1.95849331818191E-6
1.9645879342495934E-6
1.7885782217026676E-6
1.7818018998834645E-6
1.775461405592092E-6
1.7114096141637967E-6
1.7038481565035516E-6
1.6967225263711368E-6
1.6334952941708152E-6
1.625148700669528E-6
1.5548352617237226E-6
8.281742561325006E-6
8.247159733010528E-6
8.213257655341699E-6
8.375545729313932E-6
8.340438846999467E-6
8.306012715330648E-6
8.468371805417181E-6
8.432740869102727E-6
8.560220789634748E-6
7.986323344056594E-6
8.019080883802827E-6
8.05256632305257E-6
8.086779661805825E-6
7.8878554201576E-6
7.920038482080133E-6
7.952949443506175E-6
7.788365153991072E-6
7.819973738089905E-6
1.6154524001013258E-6
1.6264271967691516E-6
1.6376744435013272E-6
1.6491941402978523E-6
1.6894418927050946E-6
1.6996243258878612E-6
1.7100792091349768E-6
1.7627198161431773E-6
1.7721098858408847E-6
1.5849535143835888E-6
1.5745583007519993E-6
1.5645188831987105E-6
1.5075426360322017E-6
1.4963315170932599E-6
1.4854761942326182E-6
1.4294148617699517E-6
1.4173878375236572E-6
1.3505701915968393E-6
8.668883124543485E-6
8.631951632829874E-6
8.595730854526961E-6
8.76268386835917E-6
8.72524882434858E-6
8.688524493748687E-6
8.855492771076682E-6
8.817554174769112E-6
8.947309832696018E-6
8.383199532926256E-6
8.419141311747357E-6
8.455864563911176E-6
8.493369289417717E-6
8.285440564812038E-6
8.320836333392173E-6
8.357013575315024E-6
8.18663394110523E-6
8.221483699444394E-6
1.4300872178648628E-6
1.4440843727386584E-6
1.4583023618180766E-6
1.4727411851031177E-6
1.5038240195281743E-6
1.5170044968442935E-6
1.530405808366035E-6
1.5768596603391707E-6
1.5892234600976137E-6
1.3927708099638792E-6
1.3784246353055215E-6
1.3643577625165083E-6
1.3148501784537443E-6
1.2996432484143588E-6
1.2847156202443172E-6
1.2362094922260289E-6
1.220141806805615E-6
1.1568487512807323E-6
9.066968318598987E-6
9.026313834399445E-6
8.986427672431789E-6
9.159358933256701E-6
9.118240602305545E-6
9.077890593586272E-6
9.250752799481532E-6
9.209170621778761E-6
9.34114991727348E-6
8.784179551713139E-6
8.824431274640324E-6
8.865521013742004E-6
8.90744876901818E-6
8.688261240039926E-6
8.728024813659389E-6
8.768626403453345E-6
8.591324485941453E-6
8.630599910253193E-6
1.2549584798604164E-6
1.2718043259351754E-6
1.28881674059915E-6
1.3059957238523404E-6
1.328226864752944E-6
1.3442392191995377E-6
1.3604181422353465E-6
1.4008210998338442E-6
1.4159999626522725E-6
1.2057535320617565E-6
1.189205654175165E-6
1.1729040605814904E-6
1.1291024229318409E-6
1.1116918624923233E-6
1.0945275863457222E-6
1.0517684332965689E-6
1.0334951903041251E-6
9.737515631559405E-7
9.474500697077121E-6
9.429215652385256E-6
9.38476539245071E-6
9.564503151839282E-6
9.518812265234714E-6
9.473956163387462E-6
9.65353157175697E-6
9.607434843239702E-6
9.74158595683019E-6
9.193913607066437E-6
9.237993173324621E-6
9.282968526398456E-6
9.328839666287942E-6
9.099443047619722E-6
9.1430787530971E-6
9.187610245390124E-6
9.003954768270303E-6
9.047146612966872E-6
1.0913070653312428E-6
1.1104227959760481E-6
1.129661007331494E-6
1.149021699397581E-6
1.1634952845098107E-6
1.1817768692058348E-6
1.2001809346124993E-6
1.2350581706835098E-6
1.2525056094307527E-6
1.0324322075479019E-6
1.0126909154218722E-6
9.931307006245515E-7
9.560658626257863E-7
9.354376245802454E-7
9.149904638634135E-7
8.790404464252259E-7
8.575252624601738E-7
8.013559589462208E-7
9.886113355470628E-6
9.837049349807832E-6
9.78887355026102E-6
9.974528756599909E-6
9.92510297469136E-6
9.87656539889879E-6
1.0061977324037853E-5
1.0012189765883547E-5
1.014845905778446E-5
9.613040784142242E-6
9.660203738608167E-6
9.708310684782841E-6
9.757361622666272E-6
9.519341244910304E-6
9.566091669926175E-6
9.613786086650796E-6
9.424607538958872E-6
9.470945434524687E-6
9.355434332814512E-7
9.575808544413378E-7
9.796910324643693E-7
1.001873967350546E-6
1.0073221006329168E-6
1.0285011968362768E-6
1.0497530499027816E-6
1.0784815226716264E-6
1.0988022939184602E-6
8.706225762616E-7
8.474218404278734E-7
8.243329679894136E-7
7.943097664982354E-7
7.701883378288296E-7
7.461787725546903E-7
7.173463399466719E-7
6.923042184415867E-7
6.397322966069092E-7
1.0306379348157668E-5
1.0252781435690196E-5
1.0200141338899129E-5
1.0392412106096181E-5
1.0338506631196674E-5
1.0285558971973567E-5
1.0477488732597857E-5
1.0423275695266316E-5
1.05616092276627E-5
1.0035872748407257E-5
1.0087192097020155E-5
1.0139512348422144E-5
1.0192833502613217E-5
9.944052929012227E-6
9.99501259438607E-6
1.0046973162548997E-5
9.851215887098565E-6
9.90181586923335E-6
7.910099467454271E-7
8.155195266492499E-7
8.400529987711409E-7
8.646103631111007E-7
8.618786916741093E-7
8.85522744325193E-7
9.091906891943447E-7
9.321666985424823E-7
9.549452239408266E-7
7.138862244337848E-7
6.890776824425707E-7
6.643597065002789E-7
6.394998822990615E-7
6.137849832529945E-7
5.881606502558496E-7
5.645178079373571E-7
5.378965518364374E-7
4.889400013486719E-7
1.0734505825036666E-5
1.0675835225705901E-5
1.0618203026581247E-5
1.0817569009220589E-5
1.075865335046681E-5
1.070077609191914E-5
1.0899692069801022E-5
1.084053135162423E-5
1.0980875006777971E-5
1.0468774407544818E-5
1.0523165123861982E-5
1.0578596885049432E-5
1.0635069691107164E-5
1.037781294985608E-5
1.0431879327311857E-5
1.0486986749637916E-5
1.0285832648212214E-5
1.0339574686806601E-5
6.556446249133449E-7
6.828924339327434E-7
7.101082368484189E-7
7.372920336603719E-7
7.25851338656172E-7
7.522187819899146E-7
7.785542192199343E-7
7.955065847220905E-7
8.209936623701775E-7
5.713852096989903E-7
5.438695172664036E-7
5.163877811496308E-7
4.978327879274947E-7
4.693987540916819E-7
4.4099867657168266E-7
4.2372125248481453E-7
3.943688772457753E-7
3.490506033709497E-7
1.116503120557131E-5
1.110254840316743E-5
1.104116300356965E-5
1.1246323522801363E-5
1.1183640534560774E-5
1.112205494912628E-5
1.1326677380731333E-5
1.1263794206654032E-5
1.1406092779361219E-5
1.090847021670377E-5
1.096586317668671E-5
1.1024334664115933E-5
1.1083884678991435E-5
1.0818355716325143E-5
1.0875459419491047E-5
1.0933641650103229E-5
1.0727222207792942E-5
1.078403665414181E-5
5.307343355899178E-7
5.60567286931115E-7
5.903138628179111E-7
6.199740632503058E-7
6.001027384804915E-7
6.290448332395113E-7
6.579005525441296E-7
6.689553045039761E-7
6.970065426808184E-7
4.390700997591845E-7
4.090856864514085E-7
3.790791876553302E-7
3.665978152694046E-7
3.356914055333034E-7
3.0476291030889984E-7
2.9361788429176283E-7
2.6178947812733645E-7
2.2013030682625922E-7
1.1607760904795273E-5
1.1539344301428299E-5
1.1472121592950282E-5
1.1685115991865646E-5
1.1616575983841717E-5
1.1549229870706741E-5
1.1761559647703596E-5
1.169289623502271E-5
1.1837091872309125E-5
1.1356644312352789E-5
1.1416365524965358E-5
1.147717923714967E-5
1.1539085448905724E-5
1.1266734751281176E-5
1.1326194716754235E-5
1.1386747181799036E-5
1.1175814873494057E-5
1.123501359182761E-5
4.1556047770326724E-7
4.4808495243112075E-7
4.80466769769508E-7
5.12705929718429E-7
4.84187163770991E-7
5.158055559502113E-7
5.472812907399654E-7
5.523250256200038E-7
5.830373352505911E-7
3.1769799892721725E-7
2.8524949533853303E-7
2.5272693130488035E-7
2.463447515682866E-7
2.1296792834373945E-7
1.7951704467422378E-7
1.7452486920784363E-7
1.4021972634743355E-7
1.022383518458884E-7
1.206927831031292E-5
1.199055121240983E-5
1.1913155733075232E-5
1.2138213204338104E-5
1.2059504131621513E-5
1.1982126677473409E-5
1.2206354361006313E-5
1.2127663313476219E-5
1.2273701780317544E-5
1.2421315387201244E-5
1.2371443778918897E-5
1.2322239243290997E-5
1.2520257596632093E-5
1.2470082793891313E-5
1.2420575063804975E-5
1.2618403672810233E-5
1.2567925675611018E-5
1.2715753615735662E-5
1.1823839123253108E-5
1.1881712645093223E-5
1.1940592883256467E-5
1.2000479837742838E-5
1.1729928137939262E-5
1.1787515541319591E-5
1.1846109661023041E-5
1.1635010246490134E-5
1.1692311531410671E-5
3.126985874825289E-7
3.4715590436775657E-7
3.814334184141676E-7
4.15531129621762E-7
3.798108725323799E-7
4.1336616783996813E-7
4.467416603087396E-7
4.4647998661101327E-7
4.791332603409619E-7
2.0705911050880383E-7
1.722434813911974E-7
1.3730322850355892E-7
1.3693926658244692E-7
1.0119113158183709E-7
6.53183728111952E-8
6.639540305309468E-8
2.9714762169481455E-8
-4.572480079252917E-9
1.2764755626633459E-5
1.2748194266638848E-5
1.273186026300625E-5
1.2898797970000343E-5
1.2881487591506168E-5
1.2864404569374001E-5
1.3031563907992612E-5
1.3013504510998871E-5
1.3163053440610265E-5
1.2335810581313969E-5
1.2378999503710726E-5
1.2423010790992526E-5
1.2467844443159374E-5
1.2225450538340318E-5
1.2268073586676293E-5
1.2311518999897312E-5
1.211367362381661E-5
1.2155730798091804E-5
2.1786158755347894E-7
2.549764576905151E-7
2.91852189783916E-7
3.284887838336816E-7
2.841653825877181E-7
3.203635939224362E-7
3.563226672135189E-7
3.5005522994381245E-7
3.853367824762124E-7
1.0717377291557121E-7
7.009852839233976E-8
3.284977739406505E-8
3.8409795430032184E-8
4.0041607161570415E-10
-3.778246976184405E-8
-3.073341119776684E-8
-6.967692539136836E-8
-1.0025584696782586E-7
1.3225217875763371E-5
1.3204212125400901E-5
1.3183490647016531E-5
1.3356548302710217E-5
1.3334847514008956E-5
1.3313430997285791E-5
1.3486621358754479E-5
1.3464225531714425E-5
1.3615437043896156E-5
1.2809320425391536E-5
1.2852552274150042E-5
1.2896450517492357E-5
1.2941015155418484E-5
1.2696574170859297E-5
1.2739352920188515E-5
1.2782798064101543E-5
1.2582748843448573E-5
1.2625074493348508E-5
1.3484724134380553E-7
1.7405256335808215E-7
2.1297412736421021E-7
2.5161193336218974E-7
1.9976649411597092E-7
2.3805452554000285E-7
2.7605879895588614E-7
2.643136749459296E-7
3.016844157797168E-7
1.808330995877815E-8
-2.114238378652991E-8
-6.058876942873124E-8
-4.92026432718625E-8
-8.936162649958851E-8
-1.297413016242078E-7
-1.1682096770872138E-7
-1.5791324041886538E-7
-1.8477166335179854E-7
1.3694069794775709E-5
1.3667490123998522E-5
1.3641279207038671E-5
1.3821563327705404E-5
1.3794338730799468E-5
1.3767482887710867E-5
1.3947782080772862E-5
1.3919912557738177E-5
1.4072726053978077E-5
1.3305120594892454E-5
1.3342733969250278E-5
1.3380948456670104E-5
1.3419764057151935E-5
1.3185014595696967E-5
1.3222067691404143E-5
1.3259721900173318E-5
1.3063646115872309E-5
1.3100138932928838E-5
6.29041527866584E-8
1.0390064180022626E-7
1.4457569934507291E-7
1.8492932542119835E-7
1.2613013028069213E-7
1.6621608485602653E-7
2.0598060796263968E-7
1.8903272380586923E-7
2.2820814394297017E-7
-6.017608242984745E-8
-1.0144185697885889E-7
-1.4297371728617593E-7
-1.2586252666089158E-7
-1.6805820729170308E-7
-2.1051997368082014E-7
-1.9183233776815898E-7
-2.3495792448077055E-7
-2.5808551575164967E-7
1.4164723236905203E-5
1.4133626128528477E-5
1.4102960400886102E-5
1.4289327735336047E-5
1.425763890206251E-5
1.422638144952332E-5
1.441266811179124E-5
1.4380387553620897E-5
1.4534744366270786E-5
1.3780723850043536E-5
1.3821148589298216E-5
1.386220750243014E-5
1.3903900589439305E-5
1.3661659996275778E-5
1.3701562970961225E-5
1.374210011952391E-5
1.3541340065311912E-5
1.3580721275428124E-5
2.0987482679055294E-9
4.457521427996237E-8
8.669735138964225E-8
1.2846515959694517E-7
6.330352355758563E-8
1.0488571818423477E-7
1.4611358390850692E-7
1.242470492753499E-7
1.6493497251659133E-7
-1.2795825991968905E-7
-1.7102865939187558E-7
-2.1440441133586246E-7
-1.9179778811102366E-7
-2.3578913859701422E-7
-2.8008584155480506E-7
-2.5586790669366715E-7
-3.007802081934617E-7
-3.2016861566761945E-7
1.4640776821351814E-5
1.4604932255846661E-5
1.4569588104152986E-5
1.4762217639080096E-5
1.4725833512501914E-5
1.4689949799735204E-5
1.4882396320600252E-5
1.484547263294904E-5
1.5001312865912283E-5
1.427319500737137E-5
1.4312599310340783E-5
1.435260708226046E-5
1.4393218323130395E-5
1.4151374626007837E-5
1.419024951195718E-5
1.422972786685678E-5
1.402827648669715E-5
1.4066621955626421E-5
-4.8406465713634644E-8
-4.471292474748209E-9
3.907729170281362E-8
8.223928681905086E-8
1.0753077268923098E-8
5.3809397821982576E-8
9.647912931371744E-8
6.971028570578304E-8
1.1188775357301555E-7
-1.8370587617691288E-7
-2.2884138717103197E-7
-2.743289670012675E-7
-2.4594778801260245E-7
-2.920038608238353E-7
-3.3841200247118445E-7
-3.083780795824916E-7
-3.553547142108381E-7
-3.7099675088658043E-7
1.5118124580019835E-5
1.5078639627095122E-5
1.5039702389059271E-5
1.5237414454398586E-5
1.5197436524208289E-5
1.5158006308906855E-5
1.5355454568948554E-5
1.5314983661492676E-5
1.5472244923669735E-5
1.4758012459305324E-5
1.4800532811938217E-5
1.4843700061520201E-5
1.4887514208051281E-5
1.4637698542886179E-5
1.4679726539658264E-5
1.4722401433379438E-5
1.4516100497494537E-5
1.4557636138405813E-5
-9.056006830067677E-8
-4.451204207738011E-8
1.0974035924817669E-9
4.626826870890886E-8
-3.279864601861505E-8
1.2367567208029252E-8
5.7095199881238775E-8
2.4801139021294153E-8
6.90855392512861E-8
-2.2926331923285055E-7
-2.761204308844179E-7
-3.2336490810232785E-7
-2.8954895830970757E-7
-3.373186741218335E-7
-3.854757555003021E-7
-3.4997815516305717E-7
-3.986604751357419E-7
-4.105509097928994E-7
1.5602121048045178E-5
1.5558219911068477E-5
1.5514927869609997E-5
1.5718435293360833E-5
1.567409449163179E-5
1.563036278542096E-5
1.5833511175383674E-5
1.578873070890229E-5
1.5947348694113702E-5
1.5247226394080556E-5
1.5292984585028533E-5
1.5339433183287804E-5
1.5386572188858375E-5
1.5128605135306696E-5
1.517391201679278E-5
1.5219909305590159E-5
1.500870107329694E-5
1.5053556645321133E-5
-1.1957980913151387E-7
-7.239307365333466E-8
-2.5678253085516074E-8
2.0564652571941915E-8
-6.421839963144355E-8
-1.7885940771545814E-8
2.797460317799133E-8
-8.935707017969303E-9
3.6542475223646966E-8
-2.645576287166155E-7
-3.1280748837540574E-7
-3.614719154008337E-7
-3.225534592989241E-7
-3.716991348529622E-7
-4.21259377773638E-7
-3.8063953106624316E-7
-4.306810225155291E-7
-4.388158440185727E-7
1.6089219550011585E-5
1.6041264251395984E-5
1.5993973966096688E-5
1.620285309134166E-5
1.6154507797688926E-5
1.6106827517352495E-5
1.6315257608187154E-5
1.6266522319497288E-5
1.642643310054807E-5
1.5741040957082978E-5
1.5790018342163688E-5
1.5839729195735446E-5
1.5890173517798246E-5
1.562416517972361E-5
1.5672732765588812E-5
1.5722033819945054E-5
1.5506008923648743E-5
1.5554166710298432E-5
-1.4058141632857285E-7
-9.148408557642015E-8
-4.291078202094716E-8
5.138494337846143E-9
-8.683830756749285E-8
-3.8592438084010494E-8
9.129404202792201E-9
-3.312295126732126E-8
1.4271456947490778E-8
-2.8840853979271656E-7
-3.381077111274414E-7
-3.8824347920272676E-7
-3.4414536927545856E-7
-3.9472899835939894E-7
-4.457492241838997E-7
-3.9993590947526214E-7
-4.5140399630841795E-7
-4.5578016039212715E-7
1.657862734730207E-5
1.6527183288117593E-5
1.6476451872532925E-5
1.6690077969107812E-5
1.663828739650961E-5
1.658720946751122E-5
1.6800304570381707E-5
1.674816748436978E-5
1.6909307151123746E-5
1.6236995747028477E-5
1.6289906532430807E-5
1.6343607762138135E-5
1.6398099436150467E-5
1.6122664978014198E-5
1.617521534038717E-5
1.6228556147065146E-5
1.6007057568270786E-5
1.605924750761441E-5
-1.5015887804084096E-7
-9.95280727376232E-8
-4.9475113390676216E-8
0
-9.845172263883546E-8
-4.8652988844039144E-8
5.678989944864377E-10
-4.668593184593976E-8
2.2807304404351356E-9
-3.0198160793522407E-7
-3.528006848417864E-7
-4.040668689940874E-7
-3.551201098810955E-7
-4.068040878092153E-7
-4.589351729830737E-7
-4.082696348427807E-7
-4.6081851379245806E-7
-4.614301828202796E-7
1.7071974968800067E-5
1.701699334446732E-5
1.6962770738575214E-5
1.718112299404231E-5
1.7125840964150364E-5
1.707131795269905E-5
1.728905822113507E-5
1.723347578568392E-5
1.7395780650078345E-5
1.6738075799095656E-5
1.679458964816998E-5
1.6851941772757132E-5
1.6910132172857114E-5
1.6626016072787252E-5
1.6682218066270208E-5
1.6739258335265987E-5
1.6512690618472187E-5
1.6568580756363777E-5
-1.4260775087520113E-7
-9.276880714968895E-8
-4.3519029315073135E-8
5.141582628646311E-9
-9.535033515446007E-8
-4.624094954554471E-8
2.279270172474307E-9
-4.78144181960597E-8
5.654092962588546E-10
-1.0975443320411392E-7
-6.617544930200283E-8
-2.2734550603026932E-8
2.056826289281377E-8
-7.147005084275833E-8
-2.8531525371479383E-8
1.4268914896664384E-8
-3.317137889850491E-8
9.126688141941885E-9
-3.08719252042558E-7
-3.592658681286276E-7
-4.101695117212016E-7
-3.5771306195558025E-7
-4.0908727339163757E-7
-4.60818512334199E-7
-4.067316218758814E-7
-4.589334286619264E-7
-4.5577493180346147E-7
1.756909584300219E-5
1.751052143711388E-5
1.745274970613926E-5
1.7675811610888115E-5
1.76169860343273E-5
1.7558963132680184E-5
1.778133458711292E-5
1.7722257839879605E-5
1.7885664771676612E-5
1.7242413024965024E-5
1.730273713149276E-5
1.7363950917562025E-5
1.7426054383172833E-5
1.7132905524890854E-5
1.7192969311844664E-5
1.7253922778340003E-5
1.7022145240854886E-5
1.708194870823477E-5
-1.1440652071890687E-7
-6.092210187583714E-8
-7.362513499724425E-9
4.6272244409431306E-8
-6.895171759810945E-8
-1.624265272957154E-8
3.6541581672009384E-8
-2.3960123060869237E-8
2.797358783313687E-8
-2.650175941598191E-7
-3.280108777908925E-7
-3.915966570054399E-7
-3.225023781592451E-7
-3.8666019364105016E-7
-4.514105047063292E-7
-3.8043333977487237E-7
-4.457556871074092E-7
-4.388104790067011E-7
1.8069293484692463E-5
1.8007238004331466E-5
1.7946028433326183E-5
1.81736291848115E-5
1.8111369880090017E-5
1.8049956484724238E-5
1.8276788548997257E-5
1.8214325419915284E-5
1.8378771577249733E-5
1.7751697282606668E-5
1.781541999916065E-5
1.7880071227189408E-5
1.7945650966692932E-5
1.764438177394847E-5
1.7707893469655478E-5
1.7772333676837248E-5
1.7535834140803858E-5
1.7599134815663884E-5
-9.2211044498269E-8
-3.400276893773016E-8
2.4147894151648343E-8
8.224094476986652E-8
-4.5547136867084475E-8
1.1798133826813077E-8
6.90857920495503E-8
6.139594354822896E-10
5.709622526273856E-8
-2.7078257572124307E-7
-3.265884629338209E-7
-3.825977640289736E-7
-3.171149959835724E-7
-3.737957095158799E-7
-4.30679836930762E-7
-3.637032824156065E-7
-4.2125882226764353E-7
-4.105474350173453E-7
1.8572726856700805E-5
1.850718603801027E-5
1.8442534278193245E-5
1.8674621353667602E-5
1.8608924484363786E-5
1.854411667393348E-5
1.8775356565469356E-5
1.870950364555226E-5
1.8874932492106063E-5
1.826263294325175E-5
1.8330343608613516E-5
1.839903657690755E-5
1.8468711848133855E-5
1.8158187526227373E-5
1.8225742136766448E-5
1.829427905023779E-5
1.8052526867374435E-5
1.811992542309082E-5
-5.1017230574114094E-8
8.988718601936195E-9
6.881651665159017E-8
1.2846616357484782E-7
-6.165089008182985E-9
5.295084054298028E-8
1.1188861896774722E-7
3.8254302773143884E-8
9.648021269942015E-8
-2.3104968770265745E-7
-2.9065441275895226E-7
-3.5048699519718156E-7
-2.7738351980464003E-7
-3.3790795725547915E-7
-3.9866025208825275E-7
-3.240316418514801E-7
-3.8547579169686365E-7
-3.709940538431778E-7
1.908043730499374E-5
1.9011004385650824E-5
1.8942502781354937E-5
1.9179404784409144E-5
1.9109871103363897E-5
1.9041268737365666E-5
1.927724590256775E-5
1.920761145982017E-5
1.9373960659469554E-5
1.877816142015907E-5
1.8849429222976177E-5
1.8921724317537193E-5
1.8995046703842122E-5
1.86762099630241E-5
1.874737245423058E-5
1.881956223718096E-5
1.8573060105682367E-5
1.8644117285278206E-5
1.222618817666488E-9
6.27046389456681E-8
1.2394048389861756E-7
1.849301536765149E-7
4.4010168246310003E-8
1.0459601937627931E-7
1.6493569533119652E-7
8.642468316537045E-8
1.461143652973075E-7
-1.852522341559406E-7
-2.469595931948762E-7
-3.08873533090622E-7
-2.2990267644682257E-7
-2.9252492205016964E-7
-3.5535374851032677E-7
-2.7487434205284395E-7
-3.384114742206025E-7
-3.2016723097400477E-7
1.9591285591806483E-5
1.9517853716493247E-5
1.9445412072380935E-5
1.9687185319490984E-5
1.961370570120444E-5
1.9541216314118817E-5
1.978197000307862E-5
1.9708442641818766E-5
1.98756396425694E-5
1.929706463384094E-5
1.937178020473355E-5
1.944756487245663E-5
1.9524418637010174E-5
1.9197571964028365E-5
1.9272232316050953E-5
1.9347961764904008E-5
1.9096899320695423E-5
1.9171504453847994E-5
6.389389056950979E-8
1.267573965682519E-7
1.8933028056887736E-7
2.516125425713862E-7
1.0456198047824379E-7
1.6653055332167221E-7
2.2820850416698392E-7
1.449074015139122E-7
2.059810412020269E-7
-1.2808304646573112E-7
-1.9186062555669267E-7
-2.558886870594506E-7
-1.7112307823128834E-7
-2.358260746086519E-7
-3.007795533978117E-7
-2.1445695152760137E-7
-2.800853651913669E-7
-2.5808466635467025E-7
2.0104473845064178E-5
2.0027165199667493E-5
1.9950887132169232E-5
2.0197314671044335E-5
2.0120014015186005E-5
2.0043743937226096E-5
2.0289075651329434E-5
2.0211782985009457E-5
2.037975678591947E-5
1.9819013197733983E-5
1.9897097781870772E-5
1.9976287577033943E-5
2.0056582583223507E-5
1.972197045637063E-5
1.9800050262700533E-5
1.9879235280056824E-5
1.9623772269462692E-5
1.970184729798572E-5
1.3545742724632987E-7
2.001551212858994E-7
2.6449908854745216E-7