# vtk DataFile Version 2.0
Generated volume Mesh
ASCII
DATASET UNSTRUCTURED_GRID
POINTS 891 float
0.005000 0.100000 0.000000
0.005000 0.000000 0.000000
0.005000 0.001250 0.000000
0.005000 0.002500 0.000000
0.005000 0.003750 0.000000
0.005000 0.005000 0.000000
0.005000 0.006250 0.000000
0.005000 0.007500 0.000000
0.005000 0.008750 0.000000
0.005000 0.010000 0.000000
0.005000 0.011250 0.000000
0.005000 0.012500 0.000000
0.005000 0.013750 0.000000
0.005000 0.015000 0.000000
0.005000 0.016250 0.000000
0.005000 0.017500 0.000000
0.005000 0.018750 0.000000
0.005000 0.020000 0.000000
0.005000 0.021250 0.000000
0.005000 0.022500 0.000000
0.005000 0.023750 0.000000
0.005000 0.025000 0.000000
0.005000 0.026250 0.000000
0.005000 0.027500 0.000000
0.005000 0.028750 0.000000
0.005000 0.030000 0.000000
0.005000 0.031250 0.000000
0.005000 0.032500 0.000000
0.005000 0.033750 0.000000
0.005000 0.035000 0.000000
0.005000 0.036250 0.000000
0.005000 0.037500 0.000000
0.005000 0.038750 0.000000
0.005000 0.040000 0.000000
0.005000 0.041250 0.000000
0.005000 0.042500 0.000000
0.005000 0.043750 0.000000
0.005000 0.045000 0.000000
0.005000 0.046250 0.000000
0.005000 0.047500 0.000000
0.005000 0.048750 0.000000
0.005000 0.050000 0.000000
0.005000 0.051250 0.000000
0.005000 0.052500 0.000000
0.005000 0.053750 0.000000
0.005000 0.055000 0.000000
0.005000 0.056250 0.000000
0.005000 0.057500 0.000000
0.005000 0.058750 0.000000
0.005000 0.060000 0.000000
0.005000 0.061250 0.000000
0.005000 0.062500 0.000000
0.005000 0.063750 0.000000
0.005000 0.065000 0.000000
0.005000 0.066250 0.000000
0.005000 0.067500 0.000000
0.005000 0.068750 0.000000
0.005000 0.070000 0.000000
0.005000 0.071250 0.000000
0.005000 0.072500 0.000000
0.005000 0.073750 0.000000
0.005000 0.075000 0.000000
0.005000 0.076250 0.000000
0.005000 0.077500 0.000000
0.005000 0.078750 0.000000
0.005000 0.080000 0.000000
0.005000 0.081250 0.000000
0.005000 0.082500 0.000000
0.005000 0.083750 0.000000
0.005000 0.085000 0.000000
0.005000 0.086250 0.000000
0.005000 0.087500 0.000000
0.005000 0.088750 0.000000
0.005000 0.090000 0.000000
0.005000 0.091250 0.000000
0.005000 0.092500 0.000000
0.005000 0.093750 0.000000
0.005000 0.095000 0.000000
0.005000 0.096250 0.000000
0.005000 0.097500 0.000000
0.005000 0.098750 0.000000
0.000000 0.000000 0.000000
0.000000 0.100000 0.000000
0.000000 0.098750 0.000000
0.000000 0.097500 0.000000
0.000000 0.096250 0.000000
0.000000 0.095000 0.000000
0.000000 0.093750 0.000000
0.000000 0.092500 0.000000
0.000000 0.091250 0.000000
0.000000 0.090000 0.000000
0.000000 0.088750 0.000000
0.000000 0.087500 0.000000
0.000000 0.086250 0.000000
0.000000 0.085000 0.000000
0.000000 0.083750 0.000000
0.000000 0.082500 0.000000
0.000000 0.081250 0.000000
0.000000 0.080000 0.000000
0.000000 0.078750 0.000000
0.000000 0.077500 0.000000
0.000000 0.076250 0.000000
0.000000 0.075000 0.000000
0.000000 0.073750 0.000000
0.000000 0.072500 0.000000
0.000000 0.071250 0.000000
0.000000 0.070000 0.000000
0.000000 0.068750 0.000000
0.000000 0.067500 0.000000
0.000000 0.066250 0.000000
0.000000 0.065000 0.000000
0.000000 0.063750 0.000000
0.000000 0.062500 0.000000
0.000000 0.061250 0.000000
0.000000 0.060000 0.000000
0.000000 0.058750 0.000000
0.000000 0.057500 0.000000
0.000000 0.056250 0.000000
0.000000 0.055000 0.000000
0.000000 0.053750 0.000000
0.000000 0.052500 0.000000
0.000000 0.051250 0.000000
0.000000 0.050000 0.000000
0.000000 0.048750 0.000000
0.000000 0.047500 0.000000
0.000000 0.046250 0.000000
0.000000 0.045000 0.000000
0.000000 0.043750 0.000000
0.000000 0.042500 0.000000
0.000000 0.041250 0.000000
0.000000 0.040000 0.000000
0.000000 0.038750 0.000000
0.000000 0.037500 0.000000
0.000000 0.036250 0.000000
0.000000 0.035000 0.000000
0.000000 0.033750 0.000000
0.000000 0.032500 0.000000
0.000000 0.031250 0.000000
0.000000 0.030000 0.000000
0.000000 0.028750 0.000000
0.000000 0.027500 0.000000
0.000000 0.026250 0.000000
0.000000 0.025000 0.000000
0.000000 0.023750 0.000000
0.000000 0.022500 0.000000
0.000000 0.021250 0.000000
0.000000 0.020000 0.000000
0.000000 0.018750 0.000000
0.000000 0.017500 0.000000
0.000000 0.016250 0.000000
0.000000 0.015000 0.000000
0.000000 0.013750 0.000000
0.000000 0.012500 0.000000
0.000000 0.011250 0.000000
0.000000 0.010000 0.000000
0.000000 0.008750 0.000000
0.000000 0.007500 0.000000
0.000000 0.006250 0.000000
0.000000 0.005000 0.000000
0.000000 0.003750 0.000000
0.000000 0.002500 0.000000
0.000000 0.001250 0.000000
0.000500 0.000000 0.000000
0.001000 0.000000 0.000000
0.001500 0.000000 0.000000
0.002000 0.000000 0.000000
0.002500 0.000000 0.000000
0.003000 0.000000 0.000000
0.003500 0.000000 0.000000
0.004000 0.000000 0.000000
0.004500 0.000000 0.000000
0.004500 0.100000 0.000000
0.004000 0.100000 0.000000
0.003500 0.100000 0.000000
0.003000 0.100000 0.000000
0.002500 0.100000 0.000000
0.002000 0.100000 0.000000
0.001500 0.100000 0.000000
0.001000 0.100000 0.000000
0.000500 0.100000 0.000000
0.000500 0.098750 0.000000
0.001000 0.098750 0.000000
0.001500 0.098750 0.000000
0.002000 0.098750 0.000000
0.002500 0.098750 0.000000
0.003000 0.098750 0.000000
0.003500 0.098750 0.000000
0.004000 0.098750 0.000000
0.004500 0.098750 0.000000
0.000500 0.097500 0.000000
0.001000 0.097500 0.000000
0.001500 0.097500 0.000000
0.002000 0.097500 0.000000
0.002500 0.097500 0.000000
0.003000 0.097500 0.000000
0.003500 0.097500 0.000000
0.004000 0.097500 0.000000
0.004500 0.097500 0.000000
0.000500 0.096250 0.000000
0.001000 0.096250 0.000000
0.001500 0.096250 0.000000
0.002000 0.096250 0.000000
0.002500 0.096250 0.000000
0.003000 0.096250 0.000000
0.003500 0.096250 0.000000
0.004000 0.096250 0.000000
0.004500 0.096250 0.000000
0.000500 0.095000 0.000000
0.001000 0.095000 0.000000
0.001500 0.095000 0.000000
0.002000 0.095000 0.000000
0.002500 0.095000 0.000000
0.003000 0.095000 0.000000
0.003500 0.095000 0.000000
0.004000 0.095000 0.000000
0.004500 0.095000 0.000000
0.000500 0.093750 0.000000
0.001000 0.093750 0.000000
0.001500 0.093750 0.000000
0.002000 0.093750 0.000000
0.002500 0.093750 0.000000
0.003000 0.093750 0.000000
0.003500 0.093750 0.000000
0.004000 0.093750 0.000000
0.004500 0.093750 0.000000
0.000500 0.092500 0.000000
0.001000 0.092500 0.000000
0.001500 0.092500 0.000000
0.002000 0.092500 0.000000
0.002500 0.092500 0.000000
0.003000 0.092500 0.000000
0.003500 0.092500 0.000000
0.004000 0.092500 0.000000
0.004500 0.092500 0.000000
0.000500 0.091250 0.000000
0.001000 0.091250 0.000000
0.001500 0.091250 0.000000
0.002000 0.091250 0.000000
0.002500 0.091250 0.000000
0.003000 0.091250 0.000000
0.003500 0.091250 0.000000
0.004000 0.091250 0.000000
0.004500 0.091250 0.000000
0.000500 0.090000 0.000000
0.001000 0.090000 0.000000
0.001500 0.090000 0.000000
0.002000 0.090000 0.000000
0.002500 0.090000 0.000000
0.003000 0.090000 0.000000
0.003500 0.090000 0.000000
0.004000 0.090000 0.000000
0.004500 0.090000 0.000000
0.000500 0.088750 0.000000
0.001000 0.088750 0.000000
0.001500 0.088750 0.000000
0.002000 0.088750 0.000000
0.002500 0.088750 0.000000
0.003000 0.088750 0.000000
0.003500 0.088750 0.000000
0.004000 0.088750 0.000000
0.004500 0.088750 0.000000
0.000500 0.087500 0.000000
0.001000 0.087500 0.000000
0.001500 0.087500 0.000000
0.002000 0.087500 0.000000
0.002500 0.087500 0.000000
0.003000 0.087500 0.000000
0.003500 0.087500 0.000000
0.004000 0.087500 0.000000
0.004500 0.087500 0.000000
0.000500 0.086250 0.000000
0.001000 0.086250 0.000000
0.001500 0.086250 0.000000
0.002000 0.086250 0.000000
0.002500 0.086250 0.000000
0.003000 0.086250 0.000000
0.003500 0.086250 0.000000
0.004000 0.086250 0.000000
0.004500 0.086250 0.000000
0.000500 0.085000 0.000000
0.001000 0.085000 0.000000
0.001500 0.085000 0.000000
0.002000 0.085000 0.000000
0.002500 0.085000 0.000000
0.003000 0.085000 0.000000
0.003500 0.085000 0.000000
0.004000 0.085000 0.000000
0.004500 0.085000 0.000000
0.000500 0.083750 0.000000
0.001000 0.083750 0.000000
0.001500 0.083750 0.000000
0.002000 0.083750 0.000000
0.002500 0.083750 0.000000
0.003000 0.083750 0.000000
0.003500 0.083750 0.000000
0.004000 0.083750 0.000000
0.004500 0.083750 0.000000
0.000500 0.082500 0.000000
0.001000 0.082500 0.000000
0.001500 0.082500 0.000000
0.002000 0.082500 0.000000
0.002500 0.082500 0.000000
0.003000 0.082500 0.000000
0.003500 0.082500 0.000000
0.004000 0.082500 0.000000
0.004500 0.082500 0.000000
0.000500 0.081250 0.000000
0.001000 0.081250 0.000000
0.001500 0.081250 0.000000
0.002000 0.081250 0.000000
0.002500 0.081250 0.000000
0.003000 0.081250 0.000000
0.003500 0.081250 0.000000
0.004000 0.081250 0.000000
0.004500 0.081250 0.000000
0.000500 0.080000 0.000000
0.001000 0.080000 0.000000
0.001500 0.080000 0.000000
0.002000 0.080000 0.000000
0.002500 0.080000 0.000000
0.003000 0.080000 0.000000
0.003500 0.080000 0.000000
0.004000 0.080000 0.000000
0.004500 0.080000 0.000000
0.000500 0.078750 0.000000
0.001000 0.078750 0.000000
0.001500 0.078750 0.000000
0.002000 0.078750 0.000000
0.002500 0.078750 0.000000
0.003000 0.078750 0.000000
0.003500 0.078750 0.000000
0.004000 0.078750 0.000000
0.004500 0.078750 0.000000
0.000500 0.077500 0.000000
0.001000 0.077500 0.000000
0.001500 0.077500 0.000000
0.002000 0.077500 0.000000
0.002500 0.077500 0.000000
0.003000 0.077500 0.000000
0.003500 0.077500 0.000000
0.004000 0.077500 0.000000
0.004500 0.077500 0.000000
0.000500 0.076250 0.000000
0.001000 0.076250 0.000000
0.001500 0.076250 0.000000
0.002000 0.076250 0.000000
0.002500 0.076250 0.000000
0.003000 0.076250 0.000000
0.003500 0.076250 0.000000
0.004000 0.076250 0.000000
0.004500 0.076250 0.000000
0.000500 0.075000 0.000000
0.001000 0.075000 0.000000
0.001500 0.075000 0.000000
0.002000 0.075000 0.000000
0.002500 0.075000 0.000000
0.003000 0.075000 0.000000
0.003500 0.075000 0.000000
0.004000 0.075000 0.000000
0.004500 0.075000 0.000000
0.000500 0.073750 0.000000
0.001000 0.073750 0.000000
0.001500 0.073750 0.000000
0.002000 0.073750 0.000000
0.002500 0.073750 0.000000
0.003000 0.073750 0.000000
[...]
POINT_DATA 891
SCALARS u1 float
LOOKUP_TABLE default
-5e-18
-5e-07
-5e-07
-5e-07
-5e-07
-5e-07
-5e-07
-5e-07
-5e-07
-5e-07
-5e-07
-5e-07
-5e-07
-5e-07
-5e-07
-5e-07
-5e-07
-5e-07
-5e-07
-5e-07
-5e-07
-5e-07
-5e-07
-5e-07
-5e-07
-5e-07
-5e-07
-5e-07
-5e-07
-5e-07
-5e-07
-5e-07
-5e-07
-5e-07
-5e-07
-5e-07
-5e-07
-5e-07
-5e-07
-5e-07
-5e-07
-5e-07
-5e-07
-5e-07
-5e-07
-5e-07
-5e-07
-5e-07
-5e-07
-5e-07
-5e-07
-5e-07
-5e-07
-5e-07
-5e-07
-5e-07
-5e-07
-5e-07
-5e-07
-5e-07
-5e-07
-5e-07
-5e-07
-5e-07
-5e-07
-5e-07
-5e-07
-5e-07
-5e-07
-5e-07
-5e-07
-5e-07
-5e-07
-5e-07
-5e-07
-5e-07
-5e-07
-5e-07
-5e-07
-5e-07
-4e-07
5e-07
9e-20
4e-07
5e-07
5e-07
5e-07
5e-07
5e-07
5e-07
5e-07
5e-07
5e-07
5e-07
5e-07
5e-07
5e-07
5e-07
5e-07
5e-07
5e-07
5e-07
5e-07
5e-07
5e-07
5e-07
5e-07
5e-07
5e-07
5e-07
5e-07
5e-07
5e-07
5e-07
5e-07
5e-07
5e-07
5e-07
5e-07
5e-07
5e-07
5e-07
5e-07
5e-07
5e-07
5e-07
5e-07
5e-07
5e-07
5e-07
5e-07
5e-07
5e-07
5e-07
5e-07
5e-07
5e-07
5e-07
5e-07
5e-07
5e-07
5e-07
5e-07
5e-07
5e-07
5e-07
5e-07
5e-07
5e-07
5e-07
5e-07
5e-07
5e-07
5e-07
5e-07
5e-07
5e-07
5e-07
5e-07
5e-07
5e-07
5e-07
4e-07
3e-07
2e-07
1e-07
-1e-14
-1e-07
-2e-07
-3e-07
-4e-07
-9e-18
3e-18
1e-17
8e-18
-4e-18
-9e-18
-2e-17
2e-18
3e-17
3e-07
2e-07
1e-07
7e-08
-6e-15
-7e-08
-1e-07
-2e-07
-3e-07
4e-07
3e-07
2e-07
1e-07
-6e-15
-1e-07
-2e-07
-3e-07
-4e-07
4e-07
3e-07
2e-07
1e-07
-1e-14
-1e-07
-2e-07
-3e-07
-4e-07
4e-07
3e-07
2e-07
1e-07
-1e-14
-1e-07
-2e-07
-3e-07
-4e-07
4e-07
3e-07
2e-07
1e-07
-1e-14
-1e-07
-2e-07
-3e-07
-4e-07
4e-07
3e-07
2e-07
1e-07
-2e-14
-1e-07
-2e-07
-3e-07
-4e-07
4e-07
3e-07
2e-07
1e-07
-2e-14
-1e-07
-2e-07
-3e-07
-4e-07
4e-07
3e-07
2e-07
1e-07
-2e-14
-1e-07
-2e-07
-3e-07
-4e-07
4e-07
3e-07
2e-07
1e-07
-2e-14
-1e-07
-2e-07
-3e-07
-4e-07
4e-07
3e-07
2e-07
1e-07
-2e-14
-1e-07
-2e-07
-3e-07
-4e-07
4e-07
3e-07
2e-07
1e-07
-1e-14
-1e-07
-2e-07
-3e-07
-4e-07
4e-07
3e-07
2e-07
1e-07
-1e-14
-1e-07
-2e-07
-3e-07
-4e-07
4e-07
3e-07
2e-07
1e-07
-1e-14
-1e-07
-2e-07
-3e-07
-4e-07
4e-07
3e-07
2e-07
1e-07
-1e-14
-1e-07
-2e-07
-3e-07
-4e-07
4e-07
3e-07
2e-07
1e-07
-1e-14
-1e-07
-2e-07
-3e-07
-4e-07
4e-07
3e-07
2e-07
1e-07
-1e-14
-1e-07
-2e-07
-3e-07
-4e-07
4e-07
3e-07
2e-07
1e-07
-1e-14
-1e-07
-2e-07
-3e-07
-4e-07
4e-07
3e-07
2e-07
1e-07
-1e-14
-1e-07
-2e-07
-3e-07
-4e-07
4e-07
3e-07
2e-07
1e-07
-1e-14
-1e-07
-2e-07
-3e-07
-4e-07
4e-07
3e-07
2e-07
1e-07
-1e-14
-1e-07
-2e-07
-3e-07
-4e-07
4e-07
3e-07
2e-07
1e-07
-1e-14
-1e-07
-2e-07
-3e-07
-4e-07
4e-07
3e-07
2e-07
1e-07
-1e-14
-1e-07
-2e-07
-3e-07
-4e-07
4e-07
3e-07
2e-07
1e-07
-1e-14
-1e-07
-2e-07
-3e-07
-4e-07
4e-07
3e-07
2e-07
1e-07
-1e-14
-1e-07
-2e-07
-3e-07
-4e-07
4e-07
3e-07
2e-07
1e-07
-1e-14
-1e-07
-2e-07
-3e-07
-4e-07
4e-07
3e-07
2e-07
1e-07
-1e-14
-1e-07
-2e-07
-3e-07
-4e-07
4e-07
3e-07
2e-07
1e-07
-1e-14
-1e-07
-2e-07
-3e-07
-4e-07
4e-07
3e-07
2e-07
1e-07
-1e-14
-1e-07
-2e-07
-3e-07
-4e-07
4e-07
3e-07
2e-07
1e-07
-1e-14
-1e-07
-2e-07
-3e-07
-4e-07
4e-07
3e-07
2e-07
1e-07
-1e-14
-1e-07
-2e-07
-3e-07
-4e-07
4e-07
3e-07
2e-07
1e-07
-1e-14
-1e-07
-2e-07
-3e-07
-4e-07
4e-07
3e-07
2e-07
1e-07
-1e-14
-1e-07
-2e-07
-3e-07
-4e-07
4e-07
3e-07
2e-07
1e-07
-1e-14
-1e-07
-2e-07
-3e-07
-4e-07
4e-07
3e-07
2e-07
1e-07
-1e-14
-1e-07
-2e-07
-3e-07
-4e-07
4e-07
3e-07
2e-07
1e-07
-1e-14
-1e-07
-2e-07
-3e-07
-4e-07
4e-07
3e-07
2e-07
1e-07
-1e-14
-1e-07
-2e-07
-3e-07
-4e-07
4e-07
3e-07
2e-07
1e-07
-1e-14
-1e-07
-2e-07
-3e-07
-4e-07
4e-07
3e-07
2e-07
1e-07
-1e-14
-1e-07
-2e-07
-3e-07
-4e-07
4e-07
3e-07
2e-07
1e-07
-1e-14
-1e-07
-2e-07
-3e-07
-4e-07
4e-07
3e-07
2e-07
1e-07
-1e-14
-1e-07
-2e-07
-3e-07
-4e-07
4e-07
3e-07
2e-07
1e-07
-1e-14
-1e-07
-2e-07
-3e-07
-4e-07
4e-07
3e-07
2e-07
1e-07
-1e-14
-1e-07
-2e-07
-3e-07
-4e-07
4e-07
3e-07
2e-07
1e-07
-1e-14
-1e-07
-2e-07
-3e-07
-4e-07
4e-07
3e-07
2e-07
1e-07
-1e-14
-1e-07
-2e-07
-3e-07
-4e-07
4e-07
3e-07
2e-07
1e-07
-1e-14
-1e-07
-2e-07
-3e-07
-4e-07
4e-07
3e-07
2e-07
1e-07
-1e-14
-1e-07
-2e-07
-3e-07
-4e-07
4e-07
3e-07
2e-07
1e-07
-1e-14
-1e-07
-2e-07
-3e-07
-4e-07
4e-07
3e-07
2e-07
1e-07
-1e-14
-1e-07
-2e-07
-3e-07
-4e-07
4e-07
3e-07
2e-07
1e-07
-1e-14
-1e-07
-2e-07
-3e-07
-4e-07
4e-07
3e-07
2e-07
1e-07
-1e-14
-1e-07
-2e-07
-3e-07
-4e-07
4e-07
3e-07
2e-07
1e-07
-1e-14
-1e-07
-2e-07
-3e-07
-4e-07
4e-07
3e-07
2e-07
1e-07
-1e-14
-1e-07
-2e-07
-3e-07
-4e-07
4e-07
3e-07
2e-07
1e-07
-1e-14
-1e-07
-2e-07
-3e-07
-4e-07
4e-07
3e-07
2e-07
1e-07
-1e-14
-1e-07
-2e-07
-3e-07
-4e-07
4e-07
3e-07
2e-07
1e-07
-1e-14
-1e-07
-2e-07
-3e-07
-4e-07
4e-07
3e-07
2e-07
1e-07
-1e-14
-1e-07
-2e-07
-3e-07
-4e-07
4e-07
3e-07
2e-07
1e-07
-1e-14
-1e-07
-2e-07
-3e-07
-4e-07
4e-07
3e-07
2e-07
1e-07
-1e-14
-1e-07
-2e-07
-3e-07
-4e-07
4e-07
3e-07
2e-07
1e-07
-1e-14
-1e-07
-2e-07
-3e-07
-4e-07
4e-07
3e-07
2e-07
1e-07
-1e-14
-1e-07
-2e-07
-3e-07
-4e-07
4e-07
3e-07
2e-07
1e-07
-1e-14
-1e-07
-2e-07
-3e-07
-4e-07
4e-07
3e-07
2e-07
1e-07
-1e-14
-1e-07
-2e-07
-3e-07
-4e-07
4e-07
3e-07
2e-07
1e-07
-1e-14
-1e-07
-2e-07
-3e-07
-4e-07
4e-07
3e-07
2e-07
1e-07
-1e-14
-1e-07
-2e-07
-3e-07
-4e-07
4e-07
3e-07
2e-07
1e-07
-1e-14
-1e-07
-2e-07
-3e-07
-4e-07
4e-07
3e-07
2e-07
1e-07
-1e-14
-1e-07
-2e-07
-3e-07
-4e-07
4e-07
3e-07
2e-07
1e-07
-1e-14
-1e-07
-2e-07
-3e-07
-4e-07
4e-07
3e-07
2e-07
1e-07
-1e-14
-1e-07
-2e-07
-3e-07
-4e-07
4e-07
3e-07
2e-07
1e-07
-1e-14
-1e-07
-2e-07
-3e-07
-4e-07
4e-07
3e-07
2e-07
1e-07
-1e-14
-1e-07
-2e-07
-3e-07
-4e-07
4e-07
3e-07
2e-07
1e-07
-1e-14
-1e-07
-2e-07
-3e-07
-4e-07
4e-07
3e-07
2e-07
1e-07
-1e-14
-1e-07
-2e-07
-3e-07
-4e-07
4e-07
3e-07
2e-07
1e-07
-1e-14
-1e-07
-2e-07
-3e-07
-4e-07
4e-07
3e-07
2e-07
1e-07
-1e-14
-1e-07
-2e-07
-3e-07
-4e-07
4e-07
3e-07
2e-07
1e-07
-1e-14
-1e-07
-2e-07
-3e-07
-4e-07
4e-07
3e-07
2e-07
1e-07
-1e-14
-1e-07
-2e-07
-3e-07
-4e-07
4e-07
3e-07
2e-07
1e-07
-1e-14
-1e-07
-2e-07
-3e-07
-4e-07
4e-07
3e-07
2e-07
1e-07
-1e-14
-1e-07
-2e-07
-3e-07
-4e-07
4e-07
3e-07
2e-07
1e-07
-1e-14
-1e-07
-2e-07
-3e-07
-4e-07
SCALARS u2 float
LOOKUP_TABLE default
-4e-18
-0.0002
-0.0002
-0.0001
-0.0001
-0.0001
-0.0001
-0.0001
-0.0001
-0.0001
-0.0001
-0.0001
-0.0001
-0.0001
-0.0001
-0.0001
-0.0001
-0.0001
-0.0001
-0.0001
-0.0001
-0.0001
-0.0001
-0.0001
-0.0001
-0.0001
-0.0001
-0.0001
-0.0001
-0.0001
-0.0001
-0.0001
-9e-05
-9e-05
-9e-05
-9e-05
-9e-05
-8e-05
-8e-05
-8e-05
-8e-05
-8e-05
-7e-05
-7e-05
-7e-05
-7e-05
-7e-05
-7e-05
-6e-05
-6e-05
-6e-05
-6e-05
-6e-05
-5e-05
-5e-05
-5e-05
-5e-05
-5e-05
-4e-05
-4e-05
-4e-05
-4e-05
-4e-05
-3e-05
-3e-05
-3e-05
-3e-05
-3e-05
-2e-05
-2e-05
-2e-05
-2e-05
-2e-05
-2e-05
-1e-05
-1e-05
-1e-05
-8e-06
-6e-06
-4e-06
-2e-06
-0.0002
1e-17
-2e-06
-4e-06
-6e-06
-8e-06
-1e-05
-1e-05
-1e-05
-2e-05
-2e-05
-2e-05
-2e-05
-2e-05
-2e-05
-3e-05
-3e-05
-3e-05
-3e-05
-3e-05
-4e-05
-4e-05
-4e-05
-4e-05
-4e-05
-5e-05
-5e-05
-5e-05
-5e-05
-5e-05
-6e-05
-6e-05
-6e-05
-6e-05
-6e-05
-7e-05
-7e-05
-7e-05
-7e-05
-7e-05
-7e-05
-8e-05
-8e-05
-8e-05
-8e-05
-8e-05
-9e-05
-9e-05
-9e-05
-9e-05
-9e-05
-0.0001
-0.0001
-0.0001
-0.0001
-0.0001
-0.0001
-0.0001
-0.0001
-0.0001
-0.0001
-0.0001
-0.0001
-0.0001
-0.0001
-0.0001
-0.0001
-0.0001
-0.0001
-0.0001
-0.0001
-0.0001
-0.0001
-0.0001
-0.0001
-0.0001
-0.0001
-0.0001
-0.0001
-0.0001
-0.0002
-0.0002
-0.0002
-0.0002
-0.0002
-0.0002
-0.0002
-0.0002
-0.0002
-0.0002
1e-17
-5e-17
-1e-17
-3e-18
-1e-17
-6e-18
9e-18
7e-17
5e-17
-2e-06
-2e-06
-2e-06
-2e-06
-2e-06
-2e-06
-2e-06
-2e-06
-2e-06
-4e-06
-4e-06
-4e-06
-4e-06
-4e-06
-4e-06
-4e-06
-4e-06
-4e-06
-6e-06
-6e-06
-6e-06
-6e-06
-6e-06
-6e-06
-6e-06
-6e-06
-6e-06
-8e-06
-8e-06
-8e-06
-8e-06
-8e-06
-8e-06
-8e-06
-8e-06
-8e-06
-1e-05
-1e-05
-1e-05
-1e-05
-1e-05
-1e-05
-1e-05
-1e-05
-1e-05
-1e-05
-1e-05
-1e-05
-1e-05
-1e-05
-1e-05
-1e-05
-1e-05
-1e-05
-1e-05
-1e-05
-1e-05
-1e-05
-1e-05
-1e-05
-1e-05
-1e-05
-1e-05
-2e-05
-2e-05
-2e-05
-2e-05
-2e-05
-2e-05
-2e-05
-2e-05
-2e-05
-2e-05
-2e-05
-2e-05
-2e-05
-2e-05
-2e-05
-2e-05
-2e-05
-2e-05
-2e-05
-2e-05
-2e-05
-2e-05
-2e-05
-2e-05
-2e-05
-2e-05
-2e-05
-2e-05
-2e-05
-2e-05
-2e-05
-2e-05
-2e-05
-2e-05
-2e-05
-2e-05
-2e-05
-2e-05
-2e-05
-2e-05
-2e-05
-2e-05
-2e-05
-2e-05
-2e-05
-2e-05
-2e-05
-2e-05
-2e-05
-2e-05
-2e-05
-2e-05
-2e-05
-2e-05
-3e-05
-3e-05
-3e-05
-3e-05
-3e-05
-3e-05
-3e-05
-3e-05
-3e-05
-3e-05
-3e-05
-3e-05
-3e-05
-3e-05
-3e-05
-3e-05
-3e-05
-3e-05
-3e-05
-3e-05
-3e-05
-3e-05
-3e-05
-3e-05
-3e-05
-3e-05
-3e-05
-3e-05
-3e-05
-3e-05
-3e-05
-3e-05
-3e-05
-3e-05
-3e-05
-3e-05
-3e-05
-3e-05
-3e-05
-3e-05
-3e-05
-3e-05
-3e-05
-3e-05
-3e-05
-4e-05
-4e-05
-4e-05
-4e-05
-4e-05
-4e-05
-4e-05
-4e-05
-4e-05
-4e-05
-4e-05
-4e-05
-4e-05
-4e-05
-4e-05
-4e-05
-4e-05
-4e-05
-4e-05
-4e-05
-4e-05
-4e-05
-4e-05
-4e-05
-4e-05
-4e-05
-4e-05
-4e-05
-4e-05
-4e-05
-4e-05
-4e-05
-4e-05
-4e-05
-4e-05
-4e-05
-4e-05
-4e-05
-4e-05
-4e-05
-4e-05
-4e-05
-4e-05
-4e-05
-4e-05
-5e-05
-5e-05
-5e-05
-5e-05
-5e-05
-5e-05
-5e-05
-5e-05
-5e-05
-5e-05
-5e-05
-5e-05
-5e-05
-5e-05
-5e-05
-5e-05
-5e-05
-5e-05
-5e-05
-5e-05
-5e-05
-5e-05
-5e-05
-5e-05
-5e-05
-5e-05
-5e-05
-5e-05
-5e-05
-5e-05
-5e-05
-5e-05
-5e-05
-5e-05
-5e-05
-5e-05
-5e-05
-5e-05
-5e-05
-5e-05
-5e-05
-5e-05
-5e-05
-5e-05
-5e-05
-6e-05
-6e-05
-6e-05
-6e-05
-6e-05
-6e-05
-6e-05
-6e-05
-6e-05
-6e-05
-6e-05
-6e-05
-6e-05
-6e-05
-6e-05
-6e-05
-6e-05
-6e-05
-6e-05
-6e-05
-6e-05
-6e-05
-6e-05
-6e-05
-6e-05
-6e-05
-6e-05
-6e-05
-6e-05
-6e-05
-6e-05
-6e-05
-6e-05
-6e-05
-6e-05
-6e-05
-6e-05
-6e-05
-6e-05
-6e-05
-6e-05
-6e-05
-6e-05
-6e-05
-6e-05
-7e-05
-7e-05
-7e-05
-7e-05
-7e-05
-7e-05
-7e-05
-7e-05
-7e-05
-7e-05
-7e-05
-7e-05
-7e-05
-7e-05
-7e-05
-7e-05
-7e-05
-7e-05
-7e-05
-7e-05
-7e-05
-7e-05
-7e-05
-7e-05
-7e-05
-7e-05
-7e-05
-7e-05
-7e-05
-7e-05
-7e-05
-7e-05
-7e-05
-7e-05
-7e-05
-7e-05
-7e-05
-7e-05
-7e-05
-7e-05
-7e-05
-7e-05
-7e-05
-7e-05
-7e-05
-7e-05
-7e-05
-7e-05
-7e-05
-7e-05
-7e-05
-7e-05
-7e-05
-7e-05
-8e-05
-8e-05
-8e-05
-8e-05
-8e-05
-8e-05
-8e-05
-8e-05
-8e-05
-8e-05
-8e-05
-8e-05
-8e-05
-8e-05
-8e-05
-8e-05
-8e-05
-8e-05
-8e-05
-8e-05
-8e-05
-8e-05
-8e-05
-8e-05
-8e-05
-8e-05
-8e-05
-8e-05
-8e-05
-8e-05
-8e-05
-8e-05
-8e-05
-8e-05
-8e-05
-8e-05
-8e-05
-8e-05
-8e-05
-8e-05
-8e-05
-8e-05
-8e-05
-8e-05
-8e-05
-9e-05
-9e-05
-9e-05
-9e-05
-9e-05
-9e-05
-9e-05
-9e-05
-9e-05
-9e-05
-9e-05
-9e-05
-9e-05
-9e-05
-9e-05
-9e-05
-9e-05
-9e-05
-9e-05
-9e-05
-9e-05
-9e-05
-9e-05
-9e-05
-9e-05
-9e-05
-9e-05
-9e-05
-9e-05
-9e-05
-9e-05
-9e-05
-9e-05
-9e-05
-9e-05
-9e-05
-9e-05
-9e-05
-9e-05
-9e-05
-9e-05
-9e-05
-9e-05
-9e-05
-9e-05
-0.0001
-0.0001
-0.0001
-0.0001
-0.0001
-0.0001
-0.0001
-0.0001
-0.0001
-0.0001
-0.0001
-0.0001
-0.0001
-0.0001
-0.0001
-0.0001
-0.0001
-0.0001
-0.0001
-0.0001
-0.0001
-0.0001
-0.0001
-0.0001
-0.0001
-0.0001
-0.0001
-0.0001
-0.0001
-0.0001
-0.0001
-0.0001
-0.0001
-0.0001
-0.0001
-0.0001
-0.0001
-0.0001
-0.0001
-0.0001
-0.0001
-0.0001
-0.0001
-0.0001
-0.0001
-0.0001
-0.0001
-0.0001
-0.0001
-0.0001
-0.0001
-0.0001
-0.0001
-0.0001
-0.0001
-0.0001
-0.0001
-0.0001
-0.0001
-0.0001
-0.0001
-0.0001
-0.0001
-0.0001
-0.0001
-0.0001
-0.0001
-0.0001
-0.0001
-0.0001
-0.0001
-0.0001
-0.0001
-0.0001
-0.0001
-0.0001
-0.0001
-0.0001
-0.0001
-0.0001
-0.0001
-0.0001
-0.0001
-0.0001
-0.0001
-0.0001
-0.0001
-0.0001
-0.0001
-0.0001
-0.0001
-0.0001
-0.0001
-0.0001
-0.0001
-0.0001
-0.0001
-0.0001
-0.0001
-0.0001
-0.0001
-0.0001
-0.0001
-0.0001
-0.0001
-0.0001
-0.0001
-0.0001
-0.0001
-0.0001
-0.0001
-0.0001
-0.0001
-0.0001
-0.0001
-0.0001
-0.0001
-0.0001
-0.0001
-0.0001
-0.0001
-0.0001
-0.0001
-0.0001
-0.0001
-0.0001
-0.0001
-0.0001
-0.0001
-0.0001
-0.0001
-0.0001
-0.0001
-0.0001
-0.0001
-0.0001
-0.0001
-0.0001
-0.0001
-0.0001
-0.0001
-0.0001
-0.0001
-0.0001
-0.0001
-0.0001
-0.0001
-0.0001
-0.0001
-0.0001
-0.0001
-0.0001
-0.0001
-0.0001
-0.0001
-0.0001
-0.0001
-0.0001
-0.0001
-0.0001
-0.0001
-0.0001
-0.0001
-0.0001
-0.0001
-0.0001
-0.0001
-0.0001
-0.0001
-0.0001
-0.0001
-0.0001
-0.0001
-0.0001
-0.0001
-0.0001
-0.0001
-0.0001
-0.0001
-0.0001
-0.0001
-0.0001
-0.0001
-0.0001
-0.0001
-0.0001
-0.0001
-0.0001
-0.0001
-0.0001
-0.0001
-0.0001
-0.0001
-0.0001
-0.0001
-0.0001
-0.0001
-0.0001
-0.0001
-0.0001
-0.0001
-0.0001
-0.0001
-0.0001
-0.0001
-0.0001
-0.0001
-0.0001
-0.0001
-0.0001
-0.0001
-0.0001
-0.0001
-0.0001
-0.0001
-0.0001
-0.0001
-0.0001
-0.0001
-0.0001
-0.0001
-0.0001
-0.0001
-0.0001
-0.0001
-0.0001
-0.0001
-0.0001
-0.0001
-0.0001
-0.0001
-0.0001
-0.0001
-0.0001
-0.0001
-0.0001
-0.0001
-0.0001
-0.0001
-0.0001
-0.0001
-0.0001
-0.0001
-0.0001
-0.0001
-0.0001
-0.0001
-0.0001
-0.0001
-0.0001
-0.0001
-0.0001
-0.0001
-0.0001
-0.0001
-0.0001
-0.0001
-0.0001
-0.0001
-0.0001
-0.0001
-0.0002
-0.0002
-0.0002
-0.0002
-0.0002
-0.0002
-0.0002
-0.0002
-0.0002
SCALARS strain_1 float
LOOKUP_TABLE default
-0.000039
-0.062929
-0.061977
-0.061020
-0.060060
-0.059094
-0.058125
-0.057152
-0.056175
-0.055194
-0.054211
-0.053224
-0.052235
-0.051244
-0.050251
-0.049256
-0.048259
-0.047262
-0.046264
-0.045265
-0.044266
-0.043268
-0.042270
-0.041273
-0.040278
-0.039285
-0.038294
-0.037306
-0.036320
-0.035339
-0.034361
-0.033387
-0.032419
-0.031456
-0.030498
-0.029547
-0.028603
-0.027665
-0.026736
-0.025814
-0.024901
-0.023998
-0.023103
-0.022219
-0.021346
-0.020483
-0.019632
-0.018793
-0.017967
-0.017153
-0.016353
-0.015566
-0.014794
-0.014037
-0.013294
-0.012567
-0.011856
-0.011162
-0.010483
-0.009822
-0.009179
-0.008553
-0.007945
-0.007355
-0.006783
-0.006231
-0.005697
-0.005183
-0.004688
-0.004212
-0.003756
-0.003320
-0.002903
-0.002507
-0.002130
-0.001772
-0.001435
-0.001117
-0.000819
-0.000540
-0.000280
-0.062984
-0.000001
-0.000243
-0.000503
-0.000783
-0.001082
-0.001401
-0.001739
-0.002097
-0.002475
-0.002873
-0.003291
-0.003728
-0.004185
-0.004662
-0.005158
-0.005674
-0.006208
-0.006762
-0.007335
-0.007926
-0.008535
-0.009163
-0.009808
-0.010470
-0.011149
-0.011846
-0.012558
-0.013287
-0.014030
-0.014789
-0.015563
-0.016351
-0.017153
-0.017968
-0.018796
-0.019636
-0.020489
-0.021353
-0.022228
-0.023113
-0.024009
-0.024914
-0.025829
-0.026751
-0.027682
-0.028621
-0.029567
-0.030519
-0.031478
-0.032443
-0.033413
-0.034387
-0.035366
-0.036350
-0.037336
-0.038326
-0.039318
-0.040313
-0.041309
-0.042307
-0.043306
-0.044305
-0.045305
-0.046304
-0.047304
-0.048303
-0.049300
-0.050296
-0.051290
-0.052282
-0.053272
-0.054260
-0.055244
-0.056225
-0.057203
-0.058177
-0.059147
-0.060114
-0.061075
-0.062032
-0.062979
-0.062974
-0.062968
-0.062963
-0.062958
-0.062952
-0.062946
-0.062940
-0.062935
-0.000032
-0.000025
-0.000019
-0.000014
-0.000010
-0.000007
-0.000004
-0.000002
-0.000002
-0.000243
-0.000243
-0.000245
-0.000248
-0.000251
-0.000255
-0.000260
-0.000266
-0.000273
-0.000503
-0.000504
-0.000505
-0.000508
-0.000511
-0.000515
-0.000520
-0.000526
-0.000532
-0.000783
-0.000783
-0.000785
-0.000787
-0.000790
-0.000794
-0.000799
-0.000805
-0.000811
-0.001082
-0.001082
-0.001083
-0.001086
-0.001089
-0.001093
-0.001098
-0.001103
-0.001110
-0.001400
-0.001400
-0.001402
-0.001404
-0.001407
-0.001411
-0.001416
-0.001421
-0.001428
-0.001739
-0.001739
-0.001740
-0.001742
-0.001745
-0.001749
-0.001753
-0.001759
-0.001765
-0.002097
-0.002097
-0.002098
-0.002100
-0.002103
-0.002107
-0.002111
-0.002116
-0.002122
-0.002474
-0.002475
-0.002476
-0.002478
-0.002480
-0.002484
-0.002488
-0.002493
-0.002500
-0.002872
-0.002872
-0.002873
-0.002875
-0.002878
-0.002881
-0.002885
-0.002891
-0.002897
-0.003290
-0.003290
-0.003291
-0.003292
-0.003295
-0.003298
-0.003302
-0.003307
-0.003313
-0.003727
-0.003727
-0.003728
-0.003729
-0.003732
-0.003735
-0.003739
-0.003744
-0.003750
-0.004184
-0.004184
-0.004184
-0.004186
-0.004188
-0.004191
-0.004195
-0.004200
-0.004206
-0.004661
-0.004660
-0.004661
-0.004662
-0.004665
-0.004667
-0.004671
-0.004676
-0.004682
-0.005157
-0.005156
-0.005157
-0.005158
-0.005160
-0.005163
-0.005167
-0.005171
-0.005177
-0.005672
-0.005672
-0.005672
-0.005673
-0.005675
-0.005678
-0.005682
-0.005686
-0.005691
-0.006207
-0.006206
-0.006207
-0.006208
-0.006209
-0.006212
-0.006216
-0.006220
-0.006225
-0.006761
-0.006760
-0.006760
-0.006761
-0.006763
-0.006765
-0.006768
-0.006773
-0.006778
-0.007333
-0.007332
-0.007332
-0.007333
-0.007334
-0.007337
-0.007340
-0.007344
-0.007349
-0.007924
-0.007923
-0.007923
-0.007924
-0.007925
-0.007927
-0.007931
-0.007934
-0.007939
-0.008533
-0.008532
-0.008532
-0.008533
-0.008534
-0.008536
-0.008539
-0.008543
-0.008547
-0.009161
-0.009159
-0.009159
-0.009160
-0.009161
-0.009163
-0.009166
-0.009169
-0.009174
-0.009806
-0.009804
-0.009804
-0.009804
-0.009805
-0.009807
-0.009810
-0.009813
-0.009817
-0.010468
-0.010467
-0.010466
-0.010466
-0.010467
-0.010469
-0.010471
-0.010475
-0.010479
-0.011147
-0.011146
-0.011145
-0.011145
-0.011146
-0.011148
-0.011150
-0.011153
-0.011157
-0.011843
-0.011842
-0.011841
-0.011841
-0.011841
-0.011843
-0.011845
-0.011848
-0.011852
-0.012556
-0.012554
-0.012553
-0.012553
-0.012553
-0.012555
-0.012557
-0.012559
-0.012563
-0.013284
-0.013282
-0.013281
-0.013281
-0.013281
-0.013282
-0.013284
-0.013287
-0.013290
-0.014028
-0.014026
-0.014025
-0.014024
-0.014025
-0.014026
-0.014027
-0.014029
-0.014033
-0.014787
-0.014784
-0.014783
-0.014783
-0.014783
-0.014784
-0.014785
-0.014787
-0.014791
-0.015560
-0.015558
-0.015557
-0.015556
-0.015556
-0.015557
-0.015558
-0.015560
-0.015563
-0.016348
-0.016346
-0.016344
-0.016343
-0.016343
-0.016344
-0.016345
-0.016347
-0.016350
-0.017150
-0.017147
-0.017146
-0.017145
-0.017145
-0.017145
-0.017146
-0.017148
-0.017150
-0.017965
-0.017962
-0.017961
-0.017959
-0.017959
-0.017959
-0.017960
-0.017962
-0.017964
-0.018793
-0.018790
-0.018789
-0.018787
-0.018787
-0.018787
-0.018787
-0.018789
-0.018791
-0.019633
-0.019631
-0.019629
-0.019627
-0.019627
-0.019627
-0.019627
-0.019628
-0.019630
-0.020486
-0.020483
-0.020481
-0.020479
-0.020479
-0.020478
-0.020479
-0.020480
-0.020481
-0.021349
-0.021347
-0.021345
-0.021343
-0.021342
-0.021342
-0.021342
-0.021342
-0.021344
-0.022224
-0.022222
-0.022219
-0.022218
-0.022216
-0.022216
-0.022216
-0.022217
-0.022218
-0.023110
-0.023107
-0.023105
-0.023103
-0.023101
-0.023100
-0.023101
-0.023101
-0.023102
-0.024006
-0.024002
-0.024000
-0.023998
-0.023997
-0.023996
-0.023995
-0.023996
-0.023996
-0.024911
-0.024907
-0.024905
-0.024903
-0.024901
-0.024900
-0.024900
-0.024900
-0.024900
-0.025825
-0.025822
-0.025819
-0.025817
-0.025815
-0.025814
-0.025813
-0.025813
-0.025813
-0.026748
-0.026744
-0.026742
-0.026739
-0.026737
-0.026736
-0.026735
-0.026735
-0.026735
-0.027679
-0.027675
-0.027672
-0.027670
-0.027668
-0.027666
-0.027665
-0.027665
-0.027665
-0.028617
-0.028614
-0.028611
-0.028608
-0.028606
-0.028604
-0.028603
-0.028603
-0.028602
-0.029563
-0.029560
-0.029557
-0.029554
-0.029551
-0.029550
-0.029548
-0.029548
-0.029547
-0.030515
-0.030512
-0.030509
-0.030506
-0.030503
-0.030502
-0.030500
-0.030499
-0.030498
-0.031474
-0.031471
-0.031467
-0.031464
-0.031462
-0.031460
-0.031458
-0.031457
-0.031456
-0.032439
-0.032435
-0.032432
-0.032429
-0.032426
-0.032424
-0.032422
-0.032421
-0.032420
-0.033408
-0.033405
-0.033401
-0.033398
-0.033395
-0.033393
-0.033391
-0.033389
-0.033388
-0.034383
-0.034379
-0.034376
-0.034373
-0.034370
-0.034367
-0.034365
-0.034363
-0.034362
-0.035362
-0.035358
-0.035354
-0.035351
-0.035348
-0.035346
-0.035343
-0.035341
-0.035340
-0.036345
-0.036341
-0.036338
-0.036334
-0.036331
-0.036328
-0.036326
-0.036324
-0.036322
-0.037332
-0.037327
-0.037324
-0.037320
-0.037317
-0.037314
-0.037311
-0.037309
-0.037307
-0.038321
-0.038317
-0.038313
-0.038310
-0.038306
-0.038303
-0.038300
-0.038298
-0.038296
-0.039314
-0.039309
-0.039305
-0.039302
-0.039298
-0.039295
-0.039292
-0.039289
-0.039287
-0.040308
-0.040304
-0.040300
-0.040296
-0.040292
-0.040289
-0.040286
-0.040283
-0.040281
-0.041304
-0.041300
-0.041296
-0.041292
-0.041288
-0.041285
-0.041281
-0.041279
-0.041276
-0.042302
-0.042298
-0.042293
-0.042289
-0.042286
-0.042282
-0.042279
-0.042276
-0.042273
-0.043301
-0.043296
-0.043292
-0.043288
-0.043284
-0.043280
-0.043277
-0.043274
-0.043271
-0.044300
-0.044296
-0.044292
-0.044287
-0.044283
-0.044279
-0.044276
-0.044272
-0.044269
-0.045300
-0.045295
-0.045291
-0.045287
-0.045283
-0.045279
-0.045275
-0.045271
-0.045268
-0.046300
-0.046295
-0.046290
-0.046287
-0.046282
-0.046278
-0.046274
-0.046271