# vtk DataFile Version 2.0
Generated volume Mesh
ASCII
DATASET UNSTRUCTURED_GRID
POINTS 891 float
0.005000 0.100000 0.000000
0.005000 0.000000 0.000000
0.005000 0.001250 0.000000
0.005000 0.002500 0.000000
0.005000 0.003750 0.000000
0.005000 0.005000 0.000000
0.005000 0.006250 0.000000
0.005000 0.007500 0.000000
0.005000 0.008750 0.000000
0.005000 0.010000 0.000000
0.005000 0.011250 0.000000
0.005000 0.012500 0.000000
0.005000 0.013750 0.000000
0.005000 0.015000 0.000000
0.005000 0.016250 0.000000
0.005000 0.017500 0.000000
0.005000 0.018750 0.000000
0.005000 0.020000 0.000000
0.005000 0.021250 0.000000
0.005000 0.022500 0.000000
0.005000 0.023750 0.000000
0.005000 0.025000 0.000000
0.005000 0.026250 0.000000
0.005000 0.027500 0.000000
0.005000 0.028750 0.000000
0.005000 0.030000 0.000000
0.005000 0.031250 0.000000
0.005000 0.032500 0.000000
0.005000 0.033750 0.000000
0.005000 0.035000 0.000000
0.005000 0.036250 0.000000
0.005000 0.037500 0.000000
0.005000 0.038750 0.000000
0.005000 0.040000 0.000000
0.005000 0.041250 0.000000
0.005000 0.042500 0.000000
0.005000 0.043750 0.000000
0.005000 0.045000 0.000000
0.005000 0.046250 0.000000
0.005000 0.047500 0.000000
0.005000 0.048750 0.000000
0.005000 0.050000 0.000000
0.005000 0.051250 0.000000
0.005000 0.052500 0.000000
0.005000 0.053750 0.000000
0.005000 0.055000 0.000000
0.005000 0.056250 0.000000
0.005000 0.057500 0.000000
0.005000 0.058750 0.000000
0.005000 0.060000 0.000000
0.005000 0.061250 0.000000
0.005000 0.062500 0.000000
0.005000 0.063750 0.000000
0.005000 0.065000 0.000000
0.005000 0.066250 0.000000
0.005000 0.067500 0.000000
0.005000 0.068750 0.000000
0.005000 0.070000 0.000000
0.005000 0.071250 0.000000
0.005000 0.072500 0.000000
0.005000 0.073750 0.000000
0.005000 0.075000 0.000000
0.005000 0.076250 0.000000
0.005000 0.077500 0.000000
0.005000 0.078750 0.000000
0.005000 0.080000 0.000000
0.005000 0.081250 0.000000
0.005000 0.082500 0.000000
0.005000 0.083750 0.000000
0.005000 0.085000 0.000000
0.005000 0.086250 0.000000
0.005000 0.087500 0.000000
0.005000 0.088750 0.000000
0.005000 0.090000 0.000000
0.005000 0.091250 0.000000
0.005000 0.092500 0.000000
0.005000 0.093750 0.000000
0.005000 0.095000 0.000000
0.005000 0.096250 0.000000
0.005000 0.097500 0.000000
0.005000 0.098750 0.000000
0.000000 0.000000 0.000000
0.000000 0.100000 0.000000
0.000000 0.098750 0.000000
0.000000 0.097500 0.000000
0.000000 0.096250 0.000000
0.000000 0.095000 0.000000
0.000000 0.093750 0.000000
0.000000 0.092500 0.000000
0.000000 0.091250 0.000000
0.000000 0.090000 0.000000
0.000000 0.088750 0.000000
0.000000 0.087500 0.000000
0.000000 0.086250 0.000000
0.000000 0.085000 0.000000
0.000000 0.083750 0.000000
0.000000 0.082500 0.000000
0.000000 0.081250 0.000000
0.000000 0.080000 0.000000
0.000000 0.078750 0.000000
0.000000 0.077500 0.000000
0.000000 0.076250 0.000000
0.000000 0.075000 0.000000
0.000000 0.073750 0.000000
0.000000 0.072500 0.000000
0.000000 0.071250 0.000000
0.000000 0.070000 0.000000
0.000000 0.068750 0.000000
0.000000 0.067500 0.000000
0.000000 0.066250 0.000000
0.000000 0.065000 0.000000
0.000000 0.063750 0.000000
0.000000 0.062500 0.000000
0.000000 0.061250 0.000000
0.000000 0.060000 0.000000
0.000000 0.058750 0.000000
0.000000 0.057500 0.000000
0.000000 0.056250 0.000000
0.000000 0.055000 0.000000
0.000000 0.053750 0.000000
0.000000 0.052500 0.000000
0.000000 0.051250 0.000000
0.000000 0.050000 0.000000
0.000000 0.048750 0.000000
0.000000 0.047500 0.000000
0.000000 0.046250 0.000000
0.000000 0.045000 0.000000
0.000000 0.043750 0.000000
0.000000 0.042500 0.000000
0.000000 0.041250 0.000000
0.000000 0.040000 0.000000
0.000000 0.038750 0.000000
0.000000 0.037500 0.000000
0.000000 0.036250 0.000000
0.000000 0.035000 0.000000
0.000000 0.033750 0.000000
0.000000 0.032500 0.000000
0.000000 0.031250 0.000000
0.000000 0.030000 0.000000
0.000000 0.028750 0.000000
0.000000 0.027500 0.000000
0.000000 0.026250 0.000000
0.000000 0.025000 0.000000
0.000000 0.023750 0.000000
0.000000 0.022500 0.000000
0.000000 0.021250 0.000000
0.000000 0.020000 0.000000
0.000000 0.018750 0.000000
0.000000 0.017500 0.000000
0.000000 0.016250 0.000000
0.000000 0.015000 0.000000
0.000000 0.013750 0.000000
0.000000 0.012500 0.000000
0.000000 0.011250 0.000000
0.000000 0.010000 0.000000
0.000000 0.008750 0.000000
0.000000 0.007500 0.000000
0.000000 0.006250 0.000000
0.000000 0.005000 0.000000
0.000000 0.003750 0.000000
0.000000 0.002500 0.000000
0.000000 0.001250 0.000000
0.000500 0.000000 0.000000
0.001000 0.000000 0.000000
0.001500 0.000000 0.000000
0.002000 0.000000 0.000000
0.002500 0.000000 0.000000
0.003000 0.000000 0.000000
0.003500 0.000000 0.000000
0.004000 0.000000 0.000000
0.004500 0.000000 0.000000
0.004500 0.100000 0.000000
0.004000 0.100000 0.000000
0.003500 0.100000 0.000000
0.003000 0.100000 0.000000
0.002500 0.100000 0.000000
0.002000 0.100000 0.000000
0.001500 0.100000 0.000000
0.001000 0.100000 0.000000
0.000500 0.100000 0.000000
0.000500 0.098750 0.000000
0.001000 0.098750 0.000000
0.001500 0.098750 0.000000
0.002000 0.098750 0.000000
0.002500 0.098750 0.000000
0.003000 0.098750 0.000000
0.003500 0.098750 0.000000
0.004000 0.098750 0.000000
0.004500 0.098750 0.000000
0.000500 0.097500 0.000000
0.001000 0.097500 0.000000
0.001500 0.097500 0.000000
0.002000 0.097500 0.000000
0.002500 0.097500 0.000000
0.003000 0.097500 0.000000
0.003500 0.097500 0.000000
0.004000 0.097500 0.000000
0.004500 0.097500 0.000000
0.000500 0.096250 0.000000
0.001000 0.096250 0.000000
0.001500 0.096250 0.000000
0.002000 0.096250 0.000000
0.002500 0.096250 0.000000
0.003000 0.096250 0.000000
0.003500 0.096250 0.000000
0.004000 0.096250 0.000000
0.004500 0.096250 0.000000
0.000500 0.095000 0.000000
0.001000 0.095000 0.000000
0.001500 0.095000 0.000000
0.002000 0.095000 0.000000
0.002500 0.095000 0.000000
0.003000 0.095000 0.000000
0.003500 0.095000 0.000000
0.004000 0.095000 0.000000
0.004500 0.095000 0.000000
0.000500 0.093750 0.000000
0.001000 0.093750 0.000000
0.001500 0.093750 0.000000
0.002000 0.093750 0.000000
0.002500 0.093750 0.000000
0.003000 0.093750 0.000000
0.003500 0.093750 0.000000
0.004000 0.093750 0.000000
0.004500 0.093750 0.000000
0.000500 0.092500 0.000000
0.001000 0.092500 0.000000
0.001500 0.092500 0.000000
0.002000 0.092500 0.000000
0.002500 0.092500 0.000000
0.003000 0.092500 0.000000
0.003500 0.092500 0.000000
0.004000 0.092500 0.000000
0.004500 0.092500 0.000000
0.000500 0.091250 0.000000
0.001000 0.091250 0.000000
0.001500 0.091250 0.000000
0.002000 0.091250 0.000000
0.002500 0.091250 0.000000
0.003000 0.091250 0.000000
0.003500 0.091250 0.000000
0.004000 0.091250 0.000000
0.004500 0.091250 0.000000
0.000500 0.090000 0.000000
0.001000 0.090000 0.000000
0.001500 0.090000 0.000000
0.002000 0.090000 0.000000
0.002500 0.090000 0.000000
0.003000 0.090000 0.000000
0.003500 0.090000 0.000000
0.004000 0.090000 0.000000
0.004500 0.090000 0.000000
0.000500 0.088750 0.000000
0.001000 0.088750 0.000000
0.001500 0.088750 0.000000
0.002000 0.088750 0.000000
0.002500 0.088750 0.000000
0.003000 0.088750 0.000000
0.003500 0.088750 0.000000
0.004000 0.088750 0.000000
0.004500 0.088750 0.000000
0.000500 0.087500 0.000000
0.001000 0.087500 0.000000
0.001500 0.087500 0.000000
0.002000 0.087500 0.000000
0.002500 0.087500 0.000000
0.003000 0.087500 0.000000
0.003500 0.087500 0.000000
0.004000 0.087500 0.000000
0.004500 0.087500 0.000000
0.000500 0.086250 0.000000
0.001000 0.086250 0.000000
0.001500 0.086250 0.000000
0.002000 0.086250 0.000000
0.002500 0.086250 0.000000
0.003000 0.086250 0.000000
0.003500 0.086250 0.000000
0.004000 0.086250 0.000000
0.004500 0.086250 0.000000
0.000500 0.085000 0.000000
0.001000 0.085000 0.000000
0.001500 0.085000 0.000000
0.002000 0.085000 0.000000
0.002500 0.085000 0.000000
0.003000 0.085000 0.000000
0.003500 0.085000 0.000000
0.004000 0.085000 0.000000
0.004500 0.085000 0.000000
0.000500 0.083750 0.000000
0.001000 0.083750 0.000000
0.001500 0.083750 0.000000
0.002000 0.083750 0.000000
0.002500 0.083750 0.000000
0.003000 0.083750 0.000000
0.003500 0.083750 0.000000
0.004000 0.083750 0.000000
0.004500 0.083750 0.000000
0.000500 0.082500 0.000000
0.001000 0.082500 0.000000
0.001500 0.082500 0.000000
0.002000 0.082500 0.000000
0.002500 0.082500 0.000000
0.003000 0.082500 0.000000
0.003500 0.082500 0.000000
0.004000 0.082500 0.000000
0.004500 0.082500 0.000000
0.000500 0.081250 0.000000
0.001000 0.081250 0.000000
0.001500 0.081250 0.000000
0.002000 0.081250 0.000000
0.002500 0.081250 0.000000
0.003000 0.081250 0.000000
0.003500 0.081250 0.000000
0.004000 0.081250 0.000000
0.004500 0.081250 0.000000
0.000500 0.080000 0.000000
0.001000 0.080000 0.000000
0.001500 0.080000 0.000000
0.002000 0.080000 0.000000
0.002500 0.080000 0.000000
0.003000 0.080000 0.000000
0.003500 0.080000 0.000000
0.004000 0.080000 0.000000
0.004500 0.080000 0.000000
0.000500 0.078750 0.000000
0.001000 0.078750 0.000000
0.001500 0.078750 0.000000
0.002000 0.078750 0.000000
0.002500 0.078750 0.000000
0.003000 0.078750 0.000000
0.003500 0.078750 0.000000
0.004000 0.078750 0.000000
0.004500 0.078750 0.000000
0.000500 0.077500 0.000000
0.001000 0.077500 0.000000
0.001500 0.077500 0.000000
0.002000 0.077500 0.000000
0.002500 0.077500 0.000000
0.003000 0.077500 0.000000
0.003500 0.077500 0.000000
0.004000 0.077500 0.000000
0.004500 0.077500 0.000000
0.000500 0.076250 0.000000
0.001000 0.076250 0.000000
0.001500 0.076250 0.000000
0.002000 0.076250 0.000000
0.002500 0.076250 0.000000
0.003000 0.076250 0.000000
0.003500 0.076250 0.000000
0.004000 0.076250 0.000000
0.004500 0.076250 0.000000
0.000500 0.075000 0.000000
0.001000 0.075000 0.000000
0.001500 0.075000 0.000000
0.002000 0.075000 0.000000
0.002500 0.075000 0.000000
0.003000 0.075000 0.000000
0.003500 0.075000 0.000000
0.004000 0.075000 0.000000
0.004500 0.075000 0.000000
0.000500 0.073750 0.000000
0.001000 0.073750 0.000000
0.001500 0.073750 0.000000
0.002000 0.073750 0.000000
0.002500 0.073750 0.000000
0.003000 0.073750 0.000000
[...]
POINT_DATA 891
SCALARS u1 float
LOOKUP_TABLE default
2e-20
-1e-06
-1e-06
-1e-06
-1e-06
-1e-06
-1e-06
-1e-06
-1e-06
-1e-06
-1e-06
-1e-06
-1e-06
-1e-06
-1e-06
-1e-06
-1e-06
-1e-06
-1e-06
-1e-06
-1e-06
-1e-06
-1e-06
-1e-06
-1e-06
-1e-06
-1e-06
-1e-06
-1e-06
-1e-06
-1e-06
-1e-06
-1e-06
-1e-06
-1e-06
-1e-06
-1e-06
-1e-06
-1e-06
-1e-06
-1e-06
-1e-06
-1e-06
-1e-06
-1e-06
-1e-06
-1e-06
-1e-06
-1e-06
-1e-06
-1e-06
-1e-06
-1e-06
-1e-06
-1e-06
-1e-06
-1e-06
-1e-06
-1e-06
-1e-06
-1e-06
-1e-06
-1e-06
-1e-06
-1e-06
-1e-06
-1e-06
-1e-06
-1e-06
-1e-06
-1e-06
-1e-06
-1e-06
-1e-06
-1e-06
-1e-06
-1e-06
-1e-06
-1e-06
-1e-06
-9e-07
1e-06
6e-19
9e-07
1e-06
1e-06
1e-06
1e-06
1e-06
1e-06
1e-06
1e-06
1e-06
1e-06
1e-06
1e-06
1e-06
1e-06
1e-06
1e-06
1e-06
1e-06
1e-06
1e-06
1e-06
1e-06
1e-06
1e-06
1e-06
1e-06
1e-06
1e-06
1e-06
1e-06
1e-06
1e-06
1e-06
1e-06
1e-06
1e-06
1e-06
1e-06
1e-06
1e-06
1e-06
1e-06
1e-06
1e-06
1e-06
1e-06
1e-06
1e-06
1e-06
1e-06
1e-06
1e-06
1e-06
1e-06
1e-06
1e-06
1e-06
1e-06
1e-06
1e-06
1e-06
1e-06
1e-06
1e-06
1e-06
1e-06
1e-06
1e-06
1e-06
1e-06
1e-06
1e-06
1e-06
1e-06
1e-06
1e-06
1e-06
1e-06
9e-07
7e-07
4e-07
2e-07
6e-17
-2e-07
-4e-07
-7e-07
-9e-07
3e-19
5e-20
-2e-19
1e-19
3e-20
-6e-20
-3e-19
-2e-19
4e-19
6e-07
4e-07
3e-07
1e-07
1e-16
-1e-07
-3e-07
-4e-07
-6e-07
9e-07
6e-07
4e-07
2e-07
2e-16
-2e-07
-4e-07
-6e-07
-9e-07
9e-07
7e-07
5e-07
2e-07
2e-16
-2e-07
-5e-07
-7e-07
-9e-07
9e-07
7e-07
4e-07
2e-07
2e-16
-2e-07
-4e-07
-7e-07
-9e-07
9e-07
7e-07
4e-07
2e-07
2e-16
-2e-07
-4e-07
-7e-07
-9e-07
9e-07
7e-07
4e-07
2e-07
2e-16
-2e-07
-4e-07
-7e-07
-9e-07
9e-07
7e-07
4e-07
2e-07
2e-16
-2e-07
-4e-07
-7e-07
-9e-07
9e-07
7e-07
4e-07
2e-07
2e-16
-2e-07
-4e-07
-7e-07
-9e-07
9e-07
7e-07
4e-07
2e-07
2e-16
-2e-07
-4e-07
-7e-07
-9e-07
9e-07
7e-07
4e-07
2e-07
2e-16
-2e-07
-4e-07
-7e-07
-9e-07
9e-07
7e-07
4e-07
2e-07
2e-16
-2e-07
-4e-07
-7e-07
-9e-07
9e-07
7e-07
4e-07
2e-07
2e-16
-2e-07
-4e-07
-7e-07
-9e-07
9e-07
7e-07
4e-07
2e-07
2e-16
-2e-07
-4e-07
-7e-07
-9e-07
9e-07
7e-07
4e-07
2e-07
2e-16
-2e-07
-4e-07
-7e-07
-9e-07
9e-07
7e-07
4e-07
2e-07
1e-16
-2e-07
-4e-07
-7e-07
-9e-07
9e-07
7e-07
4e-07
2e-07
1e-16
-2e-07
-4e-07
-7e-07
-9e-07
9e-07
7e-07
4e-07
2e-07
1e-16
-2e-07
-4e-07
-7e-07
-9e-07
9e-07
7e-07
4e-07
2e-07
1e-16
-2e-07
-4e-07
-7e-07
-9e-07
9e-07
7e-07
4e-07
2e-07
1e-16
-2e-07
-4e-07
-7e-07
-9e-07
9e-07
7e-07
4e-07
2e-07
1e-16
-2e-07
-4e-07
-7e-07
-9e-07
9e-07
7e-07
4e-07
2e-07
1e-16
-2e-07
-4e-07
-7e-07
-9e-07
9e-07
7e-07
4e-07
2e-07
1e-16
-2e-07
-4e-07
-7e-07
-9e-07
9e-07
7e-07
4e-07
2e-07
9e-17
-2e-07
-4e-07
-7e-07
-9e-07
9e-07
7e-07
4e-07
2e-07
9e-17
-2e-07
-4e-07
-7e-07
-9e-07
9e-07
7e-07
4e-07
2e-07
9e-17
-2e-07
-4e-07
-7e-07
-9e-07
9e-07
7e-07
4e-07
2e-07
8e-17
-2e-07
-4e-07
-7e-07
-9e-07
9e-07
7e-07
4e-07
2e-07
8e-17
-2e-07
-4e-07
-7e-07
-9e-07
9e-07
7e-07
4e-07
2e-07
8e-17
-2e-07
-4e-07
-7e-07
-9e-07
9e-07
7e-07
4e-07
2e-07
8e-17
-2e-07
-4e-07
-7e-07
-9e-07
9e-07
7e-07
4e-07
2e-07
7e-17
-2e-07
-4e-07
-7e-07
-9e-07
9e-07
7e-07
4e-07
2e-07
7e-17
-2e-07
-4e-07
-7e-07
-9e-07
9e-07
7e-07
4e-07
2e-07
7e-17
-2e-07
-4e-07
-7e-07
-9e-07
9e-07
7e-07
4e-07
2e-07
7e-17
-2e-07
-4e-07
-7e-07
-9e-07
9e-07
7e-07
4e-07
2e-07
7e-17
-2e-07
-4e-07
-7e-07
-9e-07
9e-07
7e-07
4e-07
2e-07
7e-17
-2e-07
-4e-07
-7e-07
-9e-07
9e-07
7e-07
4e-07
2e-07
6e-17
-2e-07
-4e-07
-7e-07
-9e-07
9e-07
7e-07
4e-07
2e-07
6e-17
-2e-07
-4e-07
-7e-07
-9e-07
9e-07
7e-07
4e-07
2e-07
6e-17
-2e-07
-4e-07
-7e-07
-9e-07
9e-07
7e-07
4e-07
2e-07
6e-17
-2e-07
-4e-07
-7e-07
-9e-07
9e-07
7e-07
4e-07
2e-07
6e-17
-2e-07
-4e-07
-7e-07
-9e-07
9e-07
7e-07
4e-07
2e-07
6e-17
-2e-07
-4e-07
-7e-07
-9e-07
9e-07
7e-07
4e-07
2e-07
6e-17
-2e-07
-4e-07
-7e-07
-9e-07
9e-07
7e-07
4e-07
2e-07
6e-17
-2e-07
-4e-07
-7e-07
-9e-07
9e-07
7e-07
4e-07
2e-07
6e-17
-2e-07
-4e-07
-7e-07
-9e-07
9e-07
7e-07
4e-07
2e-07
6e-17
-2e-07
-4e-07
-7e-07
-9e-07
9e-07
7e-07
4e-07
2e-07
6e-17
-2e-07
-4e-07
-7e-07
-9e-07
9e-07
7e-07
4e-07
2e-07
6e-17
-2e-07
-4e-07
-7e-07
-9e-07
9e-07
7e-07
4e-07
2e-07
6e-17
-2e-07
-4e-07
-7e-07
-9e-07
9e-07
7e-07
4e-07
2e-07
6e-17
-2e-07
-4e-07
-7e-07
-9e-07
9e-07
7e-07
4e-07
2e-07
6e-17
-2e-07
-4e-07
-7e-07
-9e-07
9e-07
7e-07
4e-07
2e-07
6e-17
-2e-07
-4e-07
-7e-07
-9e-07
9e-07
7e-07
4e-07
2e-07
6e-17
-2e-07
-4e-07
-7e-07
-9e-07
9e-07
7e-07
4e-07
2e-07
6e-17
-2e-07
-4e-07
-7e-07
-9e-07
9e-07
7e-07
4e-07
2e-07
6e-17
-2e-07
-4e-07
-7e-07
-9e-07
9e-07
7e-07
4e-07
2e-07
6e-17
-2e-07
-4e-07
-7e-07
-9e-07
9e-07
7e-07
4e-07
2e-07
6e-17
-2e-07
-4e-07
-7e-07
-9e-07
9e-07
7e-07
4e-07
2e-07
6e-17
-2e-07
-4e-07
-7e-07
-9e-07
9e-07
7e-07
4e-07
2e-07
6e-17
-2e-07
-4e-07
-7e-07
-9e-07
9e-07
7e-07
4e-07
2e-07
6e-17
-2e-07
-4e-07
-7e-07
-9e-07
9e-07
7e-07
4e-07
2e-07
6e-17
-2e-07
-4e-07
-7e-07
-9e-07
9e-07
7e-07
4e-07
2e-07
6e-17
-2e-07
-4e-07
-7e-07
-9e-07
9e-07
7e-07
4e-07
2e-07
6e-17
-2e-07
-4e-07
-7e-07
-9e-07
9e-07
7e-07
4e-07
2e-07
6e-17
-2e-07
-4e-07
-7e-07
-9e-07
9e-07
7e-07
4e-07
2e-07
6e-17
-2e-07
-4e-07
-7e-07
-9e-07
9e-07
7e-07
4e-07
2e-07
6e-17
-2e-07
-4e-07
-7e-07
-9e-07
9e-07
7e-07
4e-07
2e-07
6e-17
-2e-07
-4e-07
-7e-07
-9e-07
9e-07
7e-07
4e-07
2e-07
6e-17
-2e-07
-4e-07
-7e-07
-9e-07
9e-07
7e-07
4e-07
2e-07
6e-17
-2e-07
-4e-07
-7e-07
-9e-07
9e-07
7e-07
4e-07
2e-07
6e-17
-2e-07
-4e-07
-7e-07
-9e-07
9e-07
7e-07
4e-07
2e-07
6e-17
-2e-07
-4e-07
-7e-07
-9e-07
9e-07
7e-07
4e-07
2e-07
6e-17
-2e-07
-4e-07
-7e-07
-9e-07
9e-07
7e-07
4e-07
2e-07
6e-17
-2e-07
-4e-07
-7e-07
-9e-07
9e-07
7e-07
4e-07
2e-07
6e-17
-2e-07
-4e-07
-7e-07
-9e-07
9e-07
7e-07
4e-07
2e-07
6e-17
-2e-07
-4e-07
-7e-07
-9e-07
9e-07
7e-07
4e-07
2e-07
6e-17
-2e-07
-4e-07
-7e-07
-9e-07
9e-07
7e-07
4e-07
2e-07
6e-17
-2e-07
-4e-07
-7e-07
-9e-07
9e-07
7e-07
4e-07
2e-07
6e-17
-2e-07
-4e-07
-7e-07
-9e-07
9e-07
7e-07
4e-07
2e-07
6e-17
-2e-07
-4e-07
-7e-07
-9e-07
9e-07
7e-07
4e-07
2e-07
6e-17
-2e-07
-4e-07
-7e-07
-9e-07
SCALARS u2 float
LOOKUP_TABLE default
-4e-19
-0.0003
-0.0003
-0.0003
-0.0003
-0.0003
-0.0003
-0.0003
-0.0003
-0.0003
-0.0003
-0.0003
-0.0003
-0.0003
-0.0003
-0.0002
-0.0002
-0.0002
-0.0002
-0.0002
-0.0002
-0.0002
-0.0002
-0.0002
-0.0002
-0.0002
-0.0002
-0.0002
-0.0002
-0.0002
-0.0002
-0.0002
-0.0002
-0.0002
-0.0002
-0.0002
-0.0002
-0.0002
-0.0002
-0.0002
-0.0002
-0.0002
-0.0001
-0.0001
-0.0001
-0.0001
-0.0001
-0.0001
-0.0001
-0.0001
-0.0001
-0.0001
-0.0001
-0.0001
-0.0001
-0.0001
-9e-05
-9e-05
-9e-05
-8e-05
-8e-05
-8e-05
-7e-05
-7e-05
-6e-05
-6e-05
-6e-05
-5e-05
-5e-05
-5e-05
-4e-05
-4e-05
-3e-05
-3e-05
-3e-05
-2e-05
-2e-05
-1e-05
-1e-05
-8e-06
-4e-06
-0.0003
7e-19
-4e-06
-8e-06
-1e-05
-1e-05
-2e-05
-2e-05
-3e-05
-3e-05
-3e-05
-4e-05
-4e-05
-5e-05
-5e-05
-5e-05
-6e-05
-6e-05
-6e-05
-7e-05
-7e-05
-8e-05
-8e-05
-8e-05
-9e-05
-9e-05
-9e-05
-0.0001
-0.0001
-0.0001
-0.0001
-0.0001
-0.0001
-0.0001
-0.0001
-0.0001
-0.0001
-0.0001
-0.0001
-0.0001
-0.0001
-0.0002
-0.0002
-0.0002
-0.0002
-0.0002
-0.0002
-0.0002
-0.0002
-0.0002
-0.0002
-0.0002
-0.0002
-0.0002
-0.0002
-0.0002
-0.0002
-0.0002
-0.0002
-0.0002
-0.0002
-0.0002
-0.0002
-0.0002
-0.0002
-0.0002
-0.0002
-0.0002
-0.0003
-0.0003
-0.0003
-0.0003
-0.0003
-0.0003
-0.0003
-0.0003
-0.0003
-0.0003
-0.0003
-0.0003
-0.0003
-0.0003
-0.0003
-0.0003
-0.0003
-0.0003
-0.0003
-0.0003
-0.0003
-0.0003
-8e-19
1e-19
8e-19
1e-18
2e-19
-2e-19
-2e-18
4e-19
7e-19
-4e-06
-4e-06
-4e-06
-4e-06
-4e-06
-4e-06
-4e-06
-4e-06
-4e-06
-8e-06
-7e-06
-7e-06
-7e-06
-7e-06
-7e-06
-7e-06
-7e-06
-8e-06
-1e-05
-1e-05
-1e-05
-1e-05
-1e-05
-1e-05
-1e-05
-1e-05
-1e-05
-1e-05
-1e-05
-1e-05
-1e-05
-1e-05
-1e-05
-1e-05
-1e-05
-1e-05
-2e-05
-2e-05
-2e-05
-2e-05
-2e-05
-2e-05
-2e-05
-2e-05
-2e-05
-2e-05
-2e-05
-2e-05
-2e-05
-2e-05
-2e-05
-2e-05
-2e-05
-2e-05
-3e-05
-3e-05
-3e-05
-3e-05
-3e-05
-3e-05
-3e-05
-3e-05
-3e-05
-3e-05
-3e-05
-3e-05
-3e-05
-3e-05
-3e-05
-3e-05
-3e-05
-3e-05
-3e-05
-3e-05
-3e-05
-3e-05
-3e-05
-3e-05
-3e-05
-3e-05
-3e-05
-4e-05
-4e-05
-4e-05
-4e-05
-4e-05
-4e-05
-4e-05
-4e-05
-4e-05
-4e-05
-4e-05
-4e-05
-4e-05
-4e-05
-4e-05
-4e-05
-4e-05
-4e-05
-5e-05
-5e-05
-5e-05
-5e-05
-5e-05
-5e-05
-5e-05
-5e-05
-5e-05
-5e-05
-5e-05
-5e-05
-5e-05
-5e-05
-5e-05
-5e-05
-5e-05
-5e-05
-5e-05
-5e-05
-5e-05
-5e-05
-5e-05
-5e-05
-5e-05
-5e-05
-5e-05
-6e-05
-6e-05
-6e-05
-6e-05
-6e-05
-6e-05
-6e-05
-6e-05
-6e-05
-6e-05
-6e-05
-6e-05
-6e-05
-6e-05
-6e-05
-6e-05
-6e-05
-6e-05
-6e-05
-6e-05
-6e-05
-6e-05
-6e-05
-6e-05
-6e-05
-6e-05
-6e-05
-7e-05
-7e-05
-7e-05
-7e-05
-7e-05
-7e-05
-7e-05
-7e-05
-7e-05
-7e-05
-7e-05
-7e-05
-7e-05
-7e-05
-7e-05
-7e-05
-7e-05
-7e-05
-8e-05
-8e-05
-8e-05
-8e-05
-8e-05
-8e-05
-8e-05
-8e-05
-8e-05
-8e-05
-8e-05
-8e-05
-8e-05
-8e-05
-8e-05
-8e-05
-8e-05
-8e-05
-8e-05
-8e-05
-8e-05
-8e-05
-8e-05
-8e-05
-8e-05
-8e-05
-8e-05
-9e-05
-9e-05
-9e-05
-9e-05
-9e-05
-9e-05
-9e-05
-9e-05
-9e-05
-9e-05
-9e-05
-9e-05
-9e-05
-9e-05
-9e-05
-9e-05
-9e-05
-9e-05
-9e-05
-9e-05
-9e-05
-9e-05
-9e-05
-9e-05
-9e-05
-9e-05
-9e-05
-0.0001
-0.0001
-0.0001
-0.0001
-0.0001
-0.0001
-0.0001
-0.0001
-0.0001
-0.0001
-0.0001
-0.0001
-0.0001
-0.0001
-0.0001
-0.0001
-0.0001
-0.0001
-0.0001
-0.0001
-0.0001
-0.0001
-0.0001
-0.0001
-0.0001
-0.0001
-0.0001
-0.0001
-0.0001
-0.0001
-0.0001
-0.0001
-0.0001
-0.0001
-0.0001
-0.0001
-0.0001
-0.0001
-0.0001
-0.0001
-0.0001
-0.0001
-0.0001
-0.0001
-0.0001
-0.0001
-0.0001
-0.0001
-0.0001
-0.0001
-0.0001
-0.0001
-0.0001
-0.0001
-0.0001
-0.0001
-0.0001
-0.0001
-0.0001
-0.0001
-0.0001
-0.0001
-0.0001
-0.0001
-0.0001
-0.0001
-0.0001
-0.0001
-0.0001
-0.0001
-0.0001
-0.0001
-0.0001
-0.0001
-0.0001
-0.0001
-0.0001
-0.0001
-0.0001
-0.0001
-0.0001
-0.0001
-0.0001
-0.0001
-0.0001
-0.0001
-0.0001
-0.0001
-0.0001
-0.0001
-0.0001
-0.0001
-0.0001
-0.0001
-0.0001
-0.0001
-0.0001
-0.0001
-0.0001
-0.0001
-0.0001
-0.0001
-0.0001
-0.0001
-0.0001
-0.0001
-0.0001
-0.0001
-0.0001
-0.0001
-0.0001
-0.0001
-0.0001
-0.0001
-0.0001
-0.0001
-0.0001
-0.0001
-0.0001
-0.0001
-0.0001
-0.0001
-0.0001
-0.0001
-0.0001
-0.0001
-0.0002
-0.0002
-0.0002
-0.0002
-0.0002
-0.0002
-0.0002
-0.0002
-0.0002
-0.0002
-0.0002
-0.0002
-0.0002
-0.0002
-0.0002
-0.0002
-0.0002
-0.0002
-0.0002
-0.0002
-0.0002
-0.0002
-0.0002
-0.0002
-0.0002
-0.0002
-0.0002
-0.0002
-0.0002
-0.0002
-0.0002
-0.0002
-0.0002
-0.0002
-0.0002
-0.0002
-0.0002
-0.0002
-0.0002
-0.0002
-0.0002
-0.0002
-0.0002
-0.0002
-0.0002
-0.0002
-0.0002
-0.0002
-0.0002
-0.0002
-0.0002
-0.0002
-0.0002
-0.0002
-0.0002
-0.0002
-0.0002
-0.0002
-0.0002
-0.0002
-0.0002
-0.0002
-0.0002
-0.0002
-0.0002
-0.0002
-0.0002
-0.0002
-0.0002
-0.0002
-0.0002
-0.0002
-0.0002
-0.0002
-0.0002
-0.0002
-0.0002
-0.0002
-0.0002
-0.0002
-0.0002
-0.0002
-0.0002
-0.0002
-0.0002
-0.0002
-0.0002
-0.0002
-0.0002
-0.0002
-0.0002
-0.0002
-0.0002
-0.0002
-0.0002
-0.0002
-0.0002
-0.0002
-0.0002
-0.0002
-0.0002
-0.0002
-0.0002
-0.0002
-0.0002
-0.0002
-0.0002
-0.0002
-0.0002
-0.0002
-0.0002
-0.0002
-0.0002
-0.0002
-0.0002
-0.0002
-0.0002
-0.0002
-0.0002
-0.0002
-0.0002
-0.0002
-0.0002
-0.0002
-0.0002
-0.0002
-0.0002
-0.0002
-0.0002
-0.0002
-0.0002
-0.0002
-0.0002
-0.0002
-0.0002
-0.0002
-0.0002
-0.0002
-0.0002
-0.0002
-0.0002
-0.0002
-0.0002
-0.0002
-0.0002
-0.0002
-0.0002
-0.0002
-0.0002
-0.0002
-0.0002
-0.0002
-0.0002
-0.0002
-0.0002
-0.0002
-0.0002
-0.0002
-0.0002
-0.0002
-0.0002
-0.0002
-0.0002
-0.0002
-0.0002
-0.0002
-0.0002
-0.0002
-0.0002
-0.0002
-0.0002
-0.0002
-0.0002
-0.0002
-0.0002
-0.0002
-0.0002
-0.0002
-0.0002
-0.0002
-0.0002
-0.0002
-0.0002
-0.0002
-0.0002
-0.0002
-0.0002
-0.0002
-0.0002
-0.0002
-0.0002
-0.0002
-0.0002
-0.0002
-0.0002
-0.0002
-0.0002
-0.0002
-0.0002
-0.0002
-0.0002
-0.0002
-0.0002
-0.0002
-0.0002
-0.0002
-0.0002
-0.0002
-0.0002
-0.0002
-0.0002
-0.0002
-0.0002
-0.0002
-0.0002
-0.0002
-0.0002
-0.0002
-0.0002
-0.0002
-0.0002
-0.0002
-0.0002
-0.0002
-0.0002
-0.0002
-0.0002
-0.0002
-0.0002
-0.0002
-0.0002
-0.0002
-0.0002
-0.0002
-0.0002
-0.0002
-0.0002
-0.0002
-0.0002
-0.0002
-0.0002
-0.0002
-0.0002
-0.0003
-0.0003
-0.0003
-0.0003
-0.0003
-0.0003
-0.0003
-0.0003
-0.0003
-0.0003
-0.0003
-0.0003
-0.0003
-0.0003
-0.0003
-0.0003
-0.0003
-0.0003
-0.0003
-0.0003
-0.0003
-0.0003
-0.0003
-0.0003
-0.0003
-0.0003
-0.0003
-0.0003
-0.0003
-0.0003
-0.0003
-0.0003
-0.0003
-0.0003
-0.0003
-0.0003
-0.0003
-0.0003
-0.0003
-0.0003
-0.0003
-0.0003
-0.0003
-0.0003
-0.0003
-0.0003
-0.0003
-0.0003
-0.0003
-0.0003
-0.0003
-0.0003
-0.0003
-0.0003
-0.0003
-0.0003
-0.0003
-0.0003
-0.0003
-0.0003
-0.0003
-0.0003
-0.0003
-0.0003
-0.0003
-0.0003
-0.0003
-0.0003
-0.0003
-0.0003
-0.0003
-0.0003
-0.0003
-0.0003
-0.0003
-0.0003
-0.0003
-0.0003
-0.0003
-0.0003
-0.0003
-0.0003
-0.0003
-0.0003
-0.0003
-0.0003
-0.0003
-0.0003
-0.0003
-0.0003
-0.0003
-0.0003
-0.0003
-0.0003
-0.0003
-0.0003
-0.0003
-0.0003
-0.0003
-0.0003
-0.0003
-0.0003
-0.0003
-0.0003
-0.0003
-0.0003
-0.0003
-0.0003
-0.0003
-0.0003
-0.0003
-0.0003
-0.0003
-0.0003
-0.0003
-0.0003
-0.0003
SCALARS strain_1 float
LOOKUP_TABLE default
-0.000080
-0.127188
-0.125264
-0.123331
-0.121389
-0.119438
-0.117479
-0.115512
-0.113537
-0.111556
-0.109568
-0.107575
-0.105576
-0.103572
-0.101565
-0.099554
-0.097540
-0.095524
-0.093506
-0.091488
-0.089469
-0.087452
-0.085435
-0.083421
-0.081409
-0.079402
-0.077398
-0.075401
-0.073409
-0.071425
-0.069449
-0.067482
-0.065525
-0.063577
-0.061642
-0.059720
-0.057812
-0.055917
-0.054038
-0.052175
-0.050331
-0.048504
-0.046697
-0.044910
-0.043145
-0.041401
-0.039681
-0.037986
-0.036315
-0.034670
-0.033052
-0.031463
-0.029902
-0.028371
-0.026871
-0.025401
-0.023964
-0.022560
-0.021189
-0.019854
-0.018552
-0.017287
-0.016058
-0.014866
-0.013712
-0.012595
-0.011516
-0.010476
-0.009476
-0.008515
-0.007593
-0.006711
-0.005869
-0.005066
-0.004305
-0.003583
-0.002900
-0.002258
-0.001655
-0.001091
-0.000566
-0.127301
-0.000003
-0.000491
-0.001017
-0.001582
-0.002187
-0.002831
-0.003515
-0.004239
-0.005003
-0.005807
-0.006651
-0.007536
-0.008459
-0.009423
-0.010426
-0.011468
-0.012549
-0.013669
-0.014826
-0.016021
-0.017252
-0.018520
-0.019824
-0.021163
-0.022536
-0.023943
-0.025383
-0.026855
-0.028358
-0.029893
-0.031456
-0.033049
-0.034669
-0.036317
-0.037991
-0.039689
-0.041412
-0.043159
-0.044927
-0.046717
-0.048527
-0.050357
-0.052204
-0.054070
-0.055951
-0.057849
-0.059760
-0.061686
-0.063624
-0.065573
-0.067533
-0.069503
-0.071482
-0.073469
-0.075463
-0.077463
-0.079468
-0.081479
-0.083492
-0.085509
-0.087528
-0.089548
-0.091568
-0.093589
-0.095609
-0.097627
-0.099643
-0.101656
-0.103666
-0.105671
-0.107672
-0.109667
-0.111657
-0.113640
-0.115616
-0.117584
-0.119545
-0.121498
-0.123442
-0.125376
-0.127290
-0.127279
-0.127269
-0.127258
-0.127246
-0.127235
-0.127223
-0.127212
-0.127200
-0.000064
-0.000051
-0.000039
-0.000029
-0.000021
-0.000014
-0.000009
-0.000005
-0.000003
-0.000491
-0.000492
-0.000496
-0.000501
-0.000508
-0.000516
-0.000526
-0.000538
-0.000551
-0.001017
-0.001018
-0.001022
-0.001026
-0.001033
-0.001041
-0.001051
-0.001063
-0.001076
-0.001582
-0.001584
-0.001586
-0.001591
-0.001597
-0.001606
-0.001615
-0.001627
-0.001640
-0.002186
-0.002188
-0.002191
-0.002195
-0.002201
-0.002209
-0.002219
-0.002230
-0.002243
-0.002830
-0.002832
-0.002834
-0.002839
-0.002844
-0.002852
-0.002862
-0.002873
-0.002886
-0.003514
-0.003515
-0.003517
-0.003522
-0.003528
-0.003535
-0.003544
-0.003555
-0.003568
-0.004238
-0.004239
-0.004241
-0.004245
-0.004251
-0.004258
-0.004267
-0.004278
-0.004291
-0.005002
-0.005002
-0.005004
-0.005008
-0.005013
-0.005021
-0.005030
-0.005040
-0.005052
-0.005806
-0.005806
-0.005808
-0.005811
-0.005816
-0.005824
-0.005832
-0.005843
-0.005855
-0.006650
-0.006649
-0.006651
-0.006655
-0.006659
-0.006666
-0.006675
-0.006685
-0.006698
-0.007533
-0.007533
-0.007535
-0.007538
-0.007543
-0.007549
-0.007558
-0.007568
-0.007579
-0.008457
-0.008457
-0.008458
-0.008461
-0.008465
-0.008472
-0.008480
-0.008490
-0.008501
-0.009420
-0.009420
-0.009421
-0.009424
-0.009428
-0.009434
-0.009442
-0.009452
-0.009463
-0.010423
-0.010422
-0.010423
-0.010426
-0.010430
-0.010436
-0.010444
-0.010453
-0.010464
-0.011465
-0.011464
-0.011465
-0.011468
-0.011471
-0.011477
-0.011484
-0.011493
-0.011504
-0.012546
-0.012545
-0.012545
-0.012547
-0.012551
-0.012557
-0.012564
-0.012572
-0.012583
-0.013665
-0.013664
-0.013664
-0.013666
-0.013669
-0.013674
-0.013681
-0.013690
-0.013700
-0.014822
-0.014820
-0.014820
-0.014822
-0.014826
-0.014830
-0.014836
-0.014845
-0.014855
-0.016017
-0.016015
-0.016015
-0.016016
-0.016019
-0.016024
-0.016030
-0.016038
-0.016047
-0.017248
-0.017246
-0.017245
-0.017247
-0.017249
-0.017254
-0.017260
-0.017267
-0.017276
-0.018516
-0.018514
-0.018513
-0.018514
-0.018516
-0.018521
-0.018526
-0.018533
-0.018542
-0.019820
-0.019817
-0.019816
-0.019817
-0.019819
-0.019823
-0.019828
-0.019835
-0.019843
-0.021158
-0.021156
-0.021154
-0.021155
-0.021157
-0.021160
-0.021165
-0.021172
-0.021180
-0.022531
-0.022528
-0.022527
-0.022527
-0.022529
-0.022532
-0.022537
-0.022543
-0.022551
-0.023938
-0.023934
-0.023933
-0.023934
-0.023935
-0.023937
-0.023942
-0.023948
-0.023956
-0.025378
-0.025374
-0.025373
-0.025373
-0.025373
-0.025376
-0.025380
-0.025385
-0.025393
-0.026850
-0.026846
-0.026844
-0.026844
-0.026844
-0.026847
-0.026850
-0.026856
-0.026863
-0.028353
-0.028349
-0.028347
-0.028346
-0.028347
-0.028349
-0.028352
-0.028357
-0.028363
-0.029888
-0.029883
-0.029880
-0.029879
-0.029880
-0.029881
-0.029884
-0.029889
-0.029895
-0.031451
-0.031446
-0.031443
-0.031442
-0.031442
-0.031444
-0.031446
-0.031451
-0.031456
-0.033043
-0.033039
-0.033035
-0.033034
-0.033034
-0.033035
-0.033037
-0.033041
-0.033046
-0.034663
-0.034659
-0.034656
-0.034653
-0.034653
-0.034653
-0.034656
-0.034659
-0.034664
-0.036311
-0.036306
-0.036302
-0.036300
-0.036299
-0.036300
-0.036302
-0.036304
-0.036309
-0.037984
-0.037979
-0.037975
-0.037973
-0.037972
-0.037972
-0.037973
-0.037976
-0.037980
-0.039683
-0.039678
-0.039674
-0.039671
-0.039670
-0.039669
-0.039671
-0.039672
-0.039676
-0.041406
-0.041400
-0.041396
-0.041393
-0.041391
-0.041391
-0.041392
-0.041394
-0.041397
-0.043152
-0.043146
-0.043142
-0.043138
-0.043136
-0.043136
-0.043136
-0.043138
-0.043141
-0.044920
-0.044914
-0.044910
-0.044906
-0.044904
-0.044903
-0.044903
-0.044904
-0.044907
-0.046710
-0.046704
-0.046699
-0.046695
-0.046692
-0.046691
-0.046691
-0.046692
-0.046694
-0.048520
-0.048513
-0.048509
-0.048505
-0.048502
-0.048500
-0.048500
-0.048500
-0.048501
-0.050349
-0.050343
-0.050337
-0.050333
-0.050330
-0.050328
-0.050327
-0.050327
-0.050328
-0.052197
-0.052190
-0.052185
-0.052181
-0.052178
-0.052174
-0.052174
-0.052173
-0.052174
-0.054062
-0.054056
-0.054050
-0.054045
-0.054041
-0.054038
-0.054037
-0.054036
-0.054037
-0.055944
-0.055937
-0.055931
-0.055926
-0.055922
-0.055919
-0.055917
-0.055916
-0.055917
-0.057841
-0.057834
-0.057828
-0.057823
-0.057818
-0.057815
-0.057813
-0.057811
-0.057811
-0.059753
-0.059745
-0.059739
-0.059733
-0.059729
-0.059725
-0.059723
-0.059721
-0.059720
-0.061677
-0.061670
-0.061664
-0.061658
-0.061653
-0.061650
-0.061646
-0.061644
-0.061643
-0.063615
-0.063608
-0.063601
-0.063595
-0.063590
-0.063586
-0.063583
-0.063580
-0.063579
-0.065564
-0.065557
-0.065550
-0.065544
-0.065539
-0.065534
-0.065531
-0.065528
-0.065526
-0.067525
-0.067517
-0.067510
-0.067504
-0.067498
-0.067493
-0.067489
-0.067486
-0.067484
-0.069494
-0.069487
-0.069479
-0.069473
-0.069467
-0.069462
-0.069458
-0.069454
-0.069451
-0.071473
-0.071465
-0.071458
-0.071451
-0.071445
-0.071440
-0.071435
-0.071431
-0.071428
-0.073460
-0.073452
-0.073444
-0.073437
-0.073431
-0.073426
-0.073420
-0.073416
-0.073412
-0.075454
-0.075445
-0.075438
-0.075430
-0.075424
-0.075419
-0.075413
-0.075408
-0.075405
-0.077454
-0.077445
-0.077437
-0.077430
-0.077423
-0.077418
-0.077412
-0.077407
-0.077402
-0.079459
-0.079450
-0.079443
-0.079435
-0.079428
-0.079422
-0.079416
-0.079410
-0.079406
-0.081469
-0.081461
-0.081452
-0.081444
-0.081437
-0.081431
-0.081424
-0.081419
-0.081414
-0.083483
-0.083474
-0.083466
-0.083457
-0.083450
-0.083444
-0.083437
-0.083431
-0.083425
-0.085499
-0.085490
-0.085482
-0.085474
-0.085466
-0.085459
-0.085452
-0.085446
-0.085440
-0.087518
-0.087509
-0.087500
-0.087492
-0.087484
-0.087477
-0.087470
-0.087463
-0.087457
-0.089538
-0.089529
-0.089520
-0.089512
-0.089503
-0.089496
-0.089489
-0.089482