# vtk DataFile Version 2.0
Generated volume Mesh
ASCII
DATASET UNSTRUCTURED_GRID
POINTS 891 float
0.005000 0.100000 0.000000
0.005000 0.000000 0.000000
0.005000 0.001250 0.000000
0.005000 0.002500 0.000000
0.005000 0.003750 0.000000
0.005000 0.005000 0.000000
0.005000 0.006250 0.000000
0.005000 0.007500 0.000000
0.005000 0.008750 0.000000
0.005000 0.010000 0.000000
0.005000 0.011250 0.000000
0.005000 0.012500 0.000000
0.005000 0.013750 0.000000
0.005000 0.015000 0.000000
0.005000 0.016250 0.000000
0.005000 0.017500 0.000000
0.005000 0.018750 0.000000
0.005000 0.020000 0.000000
0.005000 0.021250 0.000000
0.005000 0.022500 0.000000
0.005000 0.023750 0.000000
0.005000 0.025000 0.000000
0.005000 0.026250 0.000000
0.005000 0.027500 0.000000
0.005000 0.028750 0.000000
0.005000 0.030000 0.000000
0.005000 0.031250 0.000000
0.005000 0.032500 0.000000
0.005000 0.033750 0.000000
0.005000 0.035000 0.000000
0.005000 0.036250 0.000000
0.005000 0.037500 0.000000
0.005000 0.038750 0.000000
0.005000 0.040000 0.000000
0.005000 0.041250 0.000000
0.005000 0.042500 0.000000
0.005000 0.043750 0.000000
0.005000 0.045000 0.000000
0.005000 0.046250 0.000000
0.005000 0.047500 0.000000
0.005000 0.048750 0.000000
0.005000 0.050000 0.000000
0.005000 0.051250 0.000000
0.005000 0.052500 0.000000
0.005000 0.053750 0.000000
0.005000 0.055000 0.000000
0.005000 0.056250 0.000000
0.005000 0.057500 0.000000
0.005000 0.058750 0.000000
0.005000 0.060000 0.000000
0.005000 0.061250 0.000000
0.005000 0.062500 0.000000
0.005000 0.063750 0.000000
0.005000 0.065000 0.000000
0.005000 0.066250 0.000000
0.005000 0.067500 0.000000
0.005000 0.068750 0.000000
0.005000 0.070000 0.000000
0.005000 0.071250 0.000000
0.005000 0.072500 0.000000
0.005000 0.073750 0.000000
0.005000 0.075000 0.000000
0.005000 0.076250 0.000000
0.005000 0.077500 0.000000
0.005000 0.078750 0.000000
0.005000 0.080000 0.000000
0.005000 0.081250 0.000000
0.005000 0.082500 0.000000
0.005000 0.083750 0.000000
0.005000 0.085000 0.000000
0.005000 0.086250 0.000000
0.005000 0.087500 0.000000
0.005000 0.088750 0.000000
0.005000 0.090000 0.000000
0.005000 0.091250 0.000000
0.005000 0.092500 0.000000
0.005000 0.093750 0.000000
0.005000 0.095000 0.000000
0.005000 0.096250 0.000000
0.005000 0.097500 0.000000
0.005000 0.098750 0.000000
0.000000 0.000000 0.000000
0.000000 0.100000 0.000000
0.000000 0.098750 0.000000
0.000000 0.097500 0.000000
0.000000 0.096250 0.000000
0.000000 0.095000 0.000000
0.000000 0.093750 0.000000
0.000000 0.092500 0.000000
0.000000 0.091250 0.000000
0.000000 0.090000 0.000000
0.000000 0.088750 0.000000
0.000000 0.087500 0.000000
0.000000 0.086250 0.000000
0.000000 0.085000 0.000000
0.000000 0.083750 0.000000
0.000000 0.082500 0.000000
0.000000 0.081250 0.000000
0.000000 0.080000 0.000000
0.000000 0.078750 0.000000
0.000000 0.077500 0.000000
0.000000 0.076250 0.000000
0.000000 0.075000 0.000000
0.000000 0.073750 0.000000
0.000000 0.072500 0.000000
0.000000 0.071250 0.000000
0.000000 0.070000 0.000000
0.000000 0.068750 0.000000
0.000000 0.067500 0.000000
0.000000 0.066250 0.000000
0.000000 0.065000 0.000000
0.000000 0.063750 0.000000
0.000000 0.062500 0.000000
0.000000 0.061250 0.000000
0.000000 0.060000 0.000000
0.000000 0.058750 0.000000
0.000000 0.057500 0.000000
0.000000 0.056250 0.000000
0.000000 0.055000 0.000000
0.000000 0.053750 0.000000
0.000000 0.052500 0.000000
0.000000 0.051250 0.000000
0.000000 0.050000 0.000000
0.000000 0.048750 0.000000
0.000000 0.047500 0.000000
0.000000 0.046250 0.000000
0.000000 0.045000 0.000000
0.000000 0.043750 0.000000
0.000000 0.042500 0.000000
0.000000 0.041250 0.000000
0.000000 0.040000 0.000000
0.000000 0.038750 0.000000
0.000000 0.037500 0.000000
0.000000 0.036250 0.000000
0.000000 0.035000 0.000000
0.000000 0.033750 0.000000
0.000000 0.032500 0.000000
0.000000 0.031250 0.000000
0.000000 0.030000 0.000000
0.000000 0.028750 0.000000
0.000000 0.027500 0.000000
0.000000 0.026250 0.000000
0.000000 0.025000 0.000000
0.000000 0.023750 0.000000
0.000000 0.022500 0.000000
0.000000 0.021250 0.000000
0.000000 0.020000 0.000000
0.000000 0.018750 0.000000
0.000000 0.017500 0.000000
0.000000 0.016250 0.000000
0.000000 0.015000 0.000000
0.000000 0.013750 0.000000
0.000000 0.012500 0.000000
0.000000 0.011250 0.000000
0.000000 0.010000 0.000000
0.000000 0.008750 0.000000
0.000000 0.007500 0.000000
0.000000 0.006250 0.000000
0.000000 0.005000 0.000000
0.000000 0.003750 0.000000
0.000000 0.002500 0.000000
0.000000 0.001250 0.000000
0.000500 0.000000 0.000000
0.001000 0.000000 0.000000
0.001500 0.000000 0.000000
0.002000 0.000000 0.000000
0.002500 0.000000 0.000000
0.003000 0.000000 0.000000
0.003500 0.000000 0.000000
0.004000 0.000000 0.000000
0.004500 0.000000 0.000000
0.004500 0.100000 0.000000
0.004000 0.100000 0.000000
0.003500 0.100000 0.000000
0.003000 0.100000 0.000000
0.002500 0.100000 0.000000
0.002000 0.100000 0.000000
0.001500 0.100000 0.000000
0.001000 0.100000 0.000000
0.000500 0.100000 0.000000
0.000500 0.098750 0.000000
0.001000 0.098750 0.000000
0.001500 0.098750 0.000000
0.002000 0.098750 0.000000
0.002500 0.098750 0.000000
0.003000 0.098750 0.000000
0.003500 0.098750 0.000000
0.004000 0.098750 0.000000
0.004500 0.098750 0.000000
0.000500 0.097500 0.000000
0.001000 0.097500 0.000000
0.001500 0.097500 0.000000
0.002000 0.097500 0.000000
0.002500 0.097500 0.000000
0.003000 0.097500 0.000000
0.003500 0.097500 0.000000
0.004000 0.097500 0.000000
0.004500 0.097500 0.000000
0.000500 0.096250 0.000000
0.001000 0.096250 0.000000
0.001500 0.096250 0.000000
0.002000 0.096250 0.000000
0.002500 0.096250 0.000000
0.003000 0.096250 0.000000
0.003500 0.096250 0.000000
0.004000 0.096250 0.000000
0.004500 0.096250 0.000000
0.000500 0.095000 0.000000
0.001000 0.095000 0.000000
0.001500 0.095000 0.000000
0.002000 0.095000 0.000000
0.002500 0.095000 0.000000
0.003000 0.095000 0.000000
0.003500 0.095000 0.000000
0.004000 0.095000 0.000000
0.004500 0.095000 0.000000
0.000500 0.093750 0.000000
0.001000 0.093750 0.000000
0.001500 0.093750 0.000000
0.002000 0.093750 0.000000
0.002500 0.093750 0.000000
0.003000 0.093750 0.000000
0.003500 0.093750 0.000000
0.004000 0.093750 0.000000
0.004500 0.093750 0.000000
0.000500 0.092500 0.000000
0.001000 0.092500 0.000000
0.001500 0.092500 0.000000
0.002000 0.092500 0.000000
0.002500 0.092500 0.000000
0.003000 0.092500 0.000000
0.003500 0.092500 0.000000
0.004000 0.092500 0.000000
0.004500 0.092500 0.000000
0.000500 0.091250 0.000000
0.001000 0.091250 0.000000
0.001500 0.091250 0.000000
0.002000 0.091250 0.000000
0.002500 0.091250 0.000000
0.003000 0.091250 0.000000
0.003500 0.091250 0.000000
0.004000 0.091250 0.000000
0.004500 0.091250 0.000000
0.000500 0.090000 0.000000
0.001000 0.090000 0.000000
0.001500 0.090000 0.000000
0.002000 0.090000 0.000000
0.002500 0.090000 0.000000
0.003000 0.090000 0.000000
0.003500 0.090000 0.000000
0.004000 0.090000 0.000000
0.004500 0.090000 0.000000
0.000500 0.088750 0.000000
0.001000 0.088750 0.000000
0.001500 0.088750 0.000000
0.002000 0.088750 0.000000
0.002500 0.088750 0.000000
0.003000 0.088750 0.000000
0.003500 0.088750 0.000000
0.004000 0.088750 0.000000
0.004500 0.088750 0.000000
0.000500 0.087500 0.000000
0.001000 0.087500 0.000000
0.001500 0.087500 0.000000
0.002000 0.087500 0.000000
0.002500 0.087500 0.000000
0.003000 0.087500 0.000000
0.003500 0.087500 0.000000
0.004000 0.087500 0.000000
0.004500 0.087500 0.000000
0.000500 0.086250 0.000000
0.001000 0.086250 0.000000
0.001500 0.086250 0.000000
0.002000 0.086250 0.000000
0.002500 0.086250 0.000000
0.003000 0.086250 0.000000
0.003500 0.086250 0.000000
0.004000 0.086250 0.000000
0.004500 0.086250 0.000000
0.000500 0.085000 0.000000
0.001000 0.085000 0.000000
0.001500 0.085000 0.000000
0.002000 0.085000 0.000000
0.002500 0.085000 0.000000
0.003000 0.085000 0.000000
0.003500 0.085000 0.000000
0.004000 0.085000 0.000000
0.004500 0.085000 0.000000
0.000500 0.083750 0.000000
0.001000 0.083750 0.000000
0.001500 0.083750 0.000000
0.002000 0.083750 0.000000
0.002500 0.083750 0.000000
0.003000 0.083750 0.000000
0.003500 0.083750 0.000000
0.004000 0.083750 0.000000
0.004500 0.083750 0.000000
0.000500 0.082500 0.000000
0.001000 0.082500 0.000000
0.001500 0.082500 0.000000
0.002000 0.082500 0.000000
0.002500 0.082500 0.000000
0.003000 0.082500 0.000000
0.003500 0.082500 0.000000
0.004000 0.082500 0.000000
0.004500 0.082500 0.000000
0.000500 0.081250 0.000000
0.001000 0.081250 0.000000
0.001500 0.081250 0.000000
0.002000 0.081250 0.000000
0.002500 0.081250 0.000000
0.003000 0.081250 0.000000
0.003500 0.081250 0.000000
0.004000 0.081250 0.000000
0.004500 0.081250 0.000000
0.000500 0.080000 0.000000
0.001000 0.080000 0.000000
0.001500 0.080000 0.000000
0.002000 0.080000 0.000000
0.002500 0.080000 0.000000
0.003000 0.080000 0.000000
0.003500 0.080000 0.000000
0.004000 0.080000 0.000000
0.004500 0.080000 0.000000
0.000500 0.078750 0.000000
0.001000 0.078750 0.000000
0.001500 0.078750 0.000000
0.002000 0.078750 0.000000
0.002500 0.078750 0.000000
0.003000 0.078750 0.000000
0.003500 0.078750 0.000000
0.004000 0.078750 0.000000
0.004500 0.078750 0.000000
0.000500 0.077500 0.000000
0.001000 0.077500 0.000000
0.001500 0.077500 0.000000
0.002000 0.077500 0.000000
0.002500 0.077500 0.000000
0.003000 0.077500 0.000000
0.003500 0.077500 0.000000
0.004000 0.077500 0.000000
0.004500 0.077500 0.000000
0.000500 0.076250 0.000000
0.001000 0.076250 0.000000
0.001500 0.076250 0.000000
0.002000 0.076250 0.000000
0.002500 0.076250 0.000000
0.003000 0.076250 0.000000
0.003500 0.076250 0.000000
0.004000 0.076250 0.000000
0.004500 0.076250 0.000000
0.000500 0.075000 0.000000
0.001000 0.075000 0.000000
0.001500 0.075000 0.000000
0.002000 0.075000 0.000000
0.002500 0.075000 0.000000
0.003000 0.075000 0.000000
0.003500 0.075000 0.000000
0.004000 0.075000 0.000000
0.004500 0.075000 0.000000
0.000500 0.073750 0.000000
0.001000 0.073750 0.000000
0.001500 0.073750 0.000000
0.002000 0.073750 0.000000
0.002500 0.073750 0.000000
0.003000 0.073750 0.000000
[...]
POINT_DATA 891
SCALARS u1 float
LOOKUP_TABLE default
2e-19
-7e-07
-7e-07
-7e-07
-7e-07
-7e-07
-7e-07
-7e-07
-7e-07
-7e-07
-7e-07
-7e-07
-7e-07
-7e-07
-7e-07
-7e-07
-7e-07
-7e-07
-7e-07
-7e-07
-7e-07
-7e-07
-7e-07
-7e-07
-7e-07
-7e-07
-7e-07
-7e-07
-7e-07
-7e-07
-7e-07
-7e-07
-7e-07
-7e-07
-7e-07
-7e-07
-7e-07
-7e-07
-7e-07
-7e-07
-7e-07
-7e-07
-7e-07
-7e-07
-7e-07
-7e-07
-7e-07
-7e-07
-7e-07
-7e-07
-7e-07
-7e-07
-7e-07
-7e-07
-7e-07
-7e-07
-7e-07
-7e-07
-7e-07
-7e-07
-7e-07
-7e-07
-7e-07
-7e-07
-7e-07
-7e-07
-7e-07
-7e-07
-7e-07
-7e-07
-7e-07
-7e-07
-7e-07
-7e-07
-7e-07
-7e-07
-7e-07
-7e-07
-7e-07
-7e-07
-6e-07
7e-07
3e-19
6e-07
7e-07
7e-07
7e-07
7e-07
7e-07
7e-07
7e-07
7e-07
7e-07
7e-07
7e-07
7e-07
7e-07
7e-07
7e-07
7e-07
7e-07
7e-07
7e-07
7e-07
7e-07
7e-07
7e-07
7e-07
7e-07
7e-07
7e-07
7e-07
7e-07
7e-07
7e-07
7e-07
7e-07
7e-07
7e-07
7e-07
7e-07
7e-07
7e-07
7e-07
7e-07
7e-07
7e-07
7e-07
7e-07
7e-07
7e-07
7e-07
7e-07
7e-07
7e-07
7e-07
7e-07
7e-07
7e-07
7e-07
7e-07
7e-07
7e-07
7e-07
7e-07
7e-07
7e-07
7e-07
7e-07
7e-07
7e-07
7e-07
7e-07
7e-07
7e-07
7e-07
7e-07
7e-07
7e-07
7e-07
7e-07
7e-07
6e-07
4e-07
3e-07
1e-07
-5e-16
-1e-07
-3e-07
-4e-07
-6e-07
-2e-19
-4e-19
-2e-19
3e-19
2e-19
-1e-19
-1e-19
-7e-20
2e-19
4e-07
3e-07
2e-07
9e-08
4e-17
-9e-08
-2e-07
-3e-07
-4e-07
6e-07
4e-07
3e-07
1e-07
-1e-16
-1e-07
-3e-07
-4e-07
-6e-07
6e-07
4e-07
3e-07
1e-07
-1e-16
-1e-07
-3e-07
-4e-07
-6e-07
6e-07
4e-07
3e-07
1e-07
-2e-16
-1e-07
-3e-07
-4e-07
-6e-07
6e-07
4e-07
3e-07
1e-07
-2e-16
-1e-07
-3e-07
-4e-07
-6e-07
6e-07
4e-07
3e-07
1e-07
-2e-16
-1e-07
-3e-07
-4e-07
-6e-07
6e-07
4e-07
3e-07
1e-07
-3e-16
-1e-07
-3e-07
-4e-07
-6e-07
6e-07
4e-07
3e-07
1e-07
-3e-16
-1e-07
-3e-07
-4e-07
-6e-07
6e-07
4e-07
3e-07
1e-07
-3e-16
-1e-07
-3e-07
-4e-07
-6e-07
6e-07
4e-07
3e-07
1e-07
-3e-16
-1e-07
-3e-07
-4e-07
-6e-07
6e-07
4e-07
3e-07
1e-07
-4e-16
-1e-07
-3e-07
-4e-07
-6e-07
6e-07
4e-07
3e-07
1e-07
-4e-16
-1e-07
-3e-07
-4e-07
-6e-07
6e-07
4e-07
3e-07
1e-07
-4e-16
-1e-07
-3e-07
-4e-07
-6e-07
6e-07
4e-07
3e-07
1e-07
-4e-16
-1e-07
-3e-07
-4e-07
-6e-07
6e-07
4e-07
3e-07
1e-07
-4e-16
-1e-07
-3e-07
-4e-07
-6e-07
6e-07
4e-07
3e-07
1e-07
-4e-16
-1e-07
-3e-07
-4e-07
-6e-07
6e-07
4e-07
3e-07
1e-07
-5e-16
-1e-07
-3e-07
-4e-07
-6e-07
6e-07
4e-07
3e-07
1e-07
-5e-16
-1e-07
-3e-07
-4e-07
-6e-07
6e-07
4e-07
3e-07
1e-07
-5e-16
-1e-07
-3e-07
-4e-07
-6e-07
6e-07
4e-07
3e-07
1e-07
-5e-16
-1e-07
-3e-07
-4e-07
-6e-07
6e-07
4e-07
3e-07
1e-07
-5e-16
-1e-07
-3e-07
-4e-07
-6e-07
6e-07
4e-07
3e-07
1e-07
-5e-16
-1e-07
-3e-07
-4e-07
-6e-07
6e-07
4e-07
3e-07
1e-07
-5e-16
-1e-07
-3e-07
-4e-07
-6e-07
6e-07
4e-07
3e-07
1e-07
-5e-16
-1e-07
-3e-07
-4e-07
-6e-07
6e-07
4e-07
3e-07
1e-07
-5e-16
-1e-07
-3e-07
-4e-07
-6e-07
6e-07
4e-07
3e-07
1e-07
-5e-16
-1e-07
-3e-07
-4e-07
-6e-07
6e-07
4e-07
3e-07
1e-07
-5e-16
-1e-07
-3e-07
-4e-07
-6e-07
6e-07
4e-07
3e-07
1e-07
-5e-16
-1e-07
-3e-07
-4e-07
-6e-07
6e-07
4e-07
3e-07
1e-07
-5e-16
-1e-07
-3e-07
-4e-07
-6e-07
6e-07
4e-07
3e-07
1e-07
-5e-16
-1e-07
-3e-07
-4e-07
-6e-07
6e-07
4e-07
3e-07
1e-07
-5e-16
-1e-07
-3e-07
-4e-07
-6e-07
6e-07
4e-07
3e-07
1e-07
-5e-16
-1e-07
-3e-07
-4e-07
-6e-07
6e-07
4e-07
3e-07
1e-07
-5e-16
-1e-07
-3e-07
-4e-07
-6e-07
6e-07
4e-07
3e-07
1e-07
-5e-16
-1e-07
-3e-07
-4e-07
-6e-07
6e-07
4e-07
3e-07
1e-07
-5e-16
-1e-07
-3e-07
-4e-07
-6e-07
6e-07
4e-07
3e-07
1e-07
-5e-16
-1e-07
-3e-07
-4e-07
-6e-07
6e-07
4e-07
3e-07
1e-07
-5e-16
-1e-07
-3e-07
-4e-07
-6e-07
6e-07
4e-07
3e-07
1e-07
-5e-16
-1e-07
-3e-07
-4e-07
-6e-07
6e-07
4e-07
3e-07
1e-07
-5e-16
-1e-07
-3e-07
-4e-07
-6e-07
6e-07
4e-07
3e-07
1e-07
-5e-16
-1e-07
-3e-07
-4e-07
-6e-07
6e-07
4e-07
3e-07
1e-07
-5e-16
-1e-07
-3e-07
-4e-07
-6e-07
6e-07
4e-07
3e-07
1e-07
-5e-16
-1e-07
-3e-07
-4e-07
-6e-07
6e-07
4e-07
3e-07
1e-07
-5e-16
-1e-07
-3e-07
-4e-07
-6e-07
6e-07
4e-07
3e-07
1e-07
-5e-16
-1e-07
-3e-07
-4e-07
-6e-07
6e-07
4e-07
3e-07
1e-07
-5e-16
-1e-07
-3e-07
-4e-07
-6e-07
6e-07
4e-07
3e-07
1e-07
-5e-16
-1e-07
-3e-07
-4e-07
-6e-07
6e-07
4e-07
3e-07
1e-07
-5e-16
-1e-07
-3e-07
-4e-07
-6e-07
6e-07
4e-07
3e-07
1e-07
-5e-16
-1e-07
-3e-07
-4e-07
-6e-07
6e-07
4e-07
3e-07
1e-07
-5e-16
-1e-07
-3e-07
-4e-07
-6e-07
6e-07
4e-07
3e-07
1e-07
-5e-16
-1e-07
-3e-07
-4e-07
-6e-07
6e-07
4e-07
3e-07
1e-07
-5e-16
-1e-07
-3e-07
-4e-07
-6e-07
6e-07
4e-07
3e-07
1e-07
-5e-16
-1e-07
-3e-07
-4e-07
-6e-07
6e-07
4e-07
3e-07
1e-07
-5e-16
-1e-07
-3e-07
-4e-07
-6e-07
6e-07
4e-07
3e-07
1e-07
-5e-16
-1e-07
-3e-07
-4e-07
-6e-07
6e-07
4e-07
3e-07
1e-07
-5e-16
-1e-07
-3e-07
-4e-07
-6e-07
6e-07
4e-07
3e-07
1e-07
-5e-16
-1e-07
-3e-07
-4e-07
-6e-07
6e-07
4e-07
3e-07
1e-07
-5e-16
-1e-07
-3e-07
-4e-07
-6e-07
6e-07
4e-07
3e-07
1e-07
-5e-16
-1e-07
-3e-07
-4e-07
-6e-07
6e-07
4e-07
3e-07
1e-07
-5e-16
-1e-07
-3e-07
-4e-07
-6e-07
6e-07
4e-07
3e-07
1e-07
-5e-16
-1e-07
-3e-07
-4e-07
-6e-07
6e-07
4e-07
3e-07
1e-07
-5e-16
-1e-07
-3e-07
-4e-07
-6e-07
6e-07
4e-07
3e-07
1e-07
-5e-16
-1e-07
-3e-07
-4e-07
-6e-07
6e-07
4e-07
3e-07
1e-07
-5e-16
-1e-07
-3e-07
-4e-07
-6e-07
6e-07
4e-07
3e-07
1e-07
-5e-16
-1e-07
-3e-07
-4e-07
-6e-07
6e-07
4e-07
3e-07
1e-07
-5e-16
-1e-07
-3e-07
-4e-07
-6e-07
6e-07
4e-07
3e-07
1e-07
-5e-16
-1e-07
-3e-07
-4e-07
-6e-07
6e-07
4e-07
3e-07
1e-07
-5e-16
-1e-07
-3e-07
-4e-07
-6e-07
6e-07
4e-07
3e-07
1e-07
-5e-16
-1e-07
-3e-07
-4e-07
-6e-07
6e-07
4e-07
3e-07
1e-07
-5e-16
-1e-07
-3e-07
-4e-07
-6e-07
6e-07
4e-07
3e-07
1e-07
-5e-16
-1e-07
-3e-07
-4e-07
-6e-07
6e-07
4e-07
3e-07
1e-07
-5e-16
-1e-07
-3e-07
-4e-07
-6e-07
6e-07
4e-07
3e-07
1e-07
-5e-16
-1e-07
-3e-07
-4e-07
-6e-07
6e-07
4e-07
3e-07
1e-07
-5e-16
-1e-07
-3e-07
-4e-07
-6e-07
6e-07
4e-07
3e-07
1e-07
-5e-16
-1e-07
-3e-07
-4e-07
-6e-07
6e-07
4e-07
3e-07
1e-07
-5e-16
-1e-07
-3e-07
-4e-07
-6e-07
6e-07
4e-07
3e-07
1e-07
-5e-16
-1e-07
-3e-07
-4e-07
-6e-07
6e-07
4e-07
3e-07
1e-07
-5e-16
-1e-07
-3e-07
-4e-07
-6e-07
6e-07
4e-07
3e-07
1e-07
-5e-16
-1e-07
-3e-07
-4e-07
-6e-07
6e-07
4e-07
3e-07
1e-07
-5e-16
-1e-07
-3e-07
-4e-07
-6e-07
SCALARS u2 float
LOOKUP_TABLE default
-2e-19
-0.0002
-0.0002
-0.0002
-0.0002
-0.0002
-0.0002
-0.0002
-0.0002
-0.0002
-0.0002
-0.0002
-0.0002
-0.0002
-0.0002
-0.0002
-0.0002
-0.0002
-0.0002
-0.0002
-0.0002
-0.0002
-0.0001
-0.0001
-0.0001
-0.0001
-0.0001
-0.0001
-0.0001
-0.0001
-0.0001
-0.0001
-0.0001
-0.0001
-0.0001
-0.0001
-0.0001
-0.0001
-0.0001
-0.0001
-0.0001
-0.0001
-0.0001
-0.0001
-9e-05
-9e-05
-9e-05
-9e-05
-8e-05
-8e-05
-8e-05
-8e-05
-7e-05
-7e-05
-7e-05
-7e-05
-6e-05
-6e-05
-6e-05
-6e-05
-5e-05
-5e-05
-5e-05
-5e-05
-4e-05
-4e-05
-4e-05
-4e-05
-3e-05
-3e-05
-3e-05
-3e-05
-2e-05
-2e-05
-2e-05
-2e-05
-1e-05
-1e-05
-8e-06
-5e-06
-3e-06
-0.0002
-1e-19
-3e-06
-5e-06
-8e-06
-1e-05
-1e-05
-2e-05
-2e-05
-2e-05
-2e-05
-3e-05
-3e-05
-3e-05
-3e-05
-4e-05
-4e-05
-4e-05
-4e-05
-5e-05
-5e-05
-5e-05
-5e-05
-6e-05
-6e-05
-6e-05
-6e-05
-7e-05
-7e-05
-7e-05
-7e-05
-8e-05
-8e-05
-8e-05
-8e-05
-9e-05
-9e-05
-9e-05
-9e-05
-0.0001
-0.0001
-0.0001
-0.0001
-0.0001
-0.0001
-0.0001
-0.0001
-0.0001
-0.0001
-0.0001
-0.0001
-0.0001
-0.0001
-0.0001
-0.0001
-0.0001
-0.0001
-0.0001
-0.0001
-0.0001
-0.0001
-0.0002
-0.0002
-0.0002
-0.0002
-0.0002
-0.0002
-0.0002
-0.0002
-0.0002
-0.0002
-0.0002
-0.0002
-0.0002
-0.0002
-0.0002
-0.0002
-0.0002
-0.0002
-0.0002
-0.0002
-0.0002
-0.0002
-0.0002
-0.0002
-0.0002
-0.0002
-0.0002
-0.0002
-0.0002
-5e-19
5e-19
7e-19
3e-19
-2e-19
-2e-19
-7e-19
1e-18
-2e-19
-3e-06
-2e-06
-2e-06
-2e-06
-2e-06
-2e-06
-2e-06
-2e-06
-3e-06
-5e-06
-5e-06
-5e-06
-5e-06
-5e-06
-5e-06
-5e-06
-5e-06
-5e-06
-8e-06
-7e-06
-7e-06
-7e-06
-7e-06
-7e-06
-7e-06
-7e-06
-8e-06
-1e-05
-1e-05
-1e-05
-1e-05
-1e-05
-1e-05
-1e-05
-1e-05
-1e-05
-1e-05
-1e-05
-1e-05
-1e-05
-1e-05
-1e-05
-1e-05
-1e-05
-1e-05
-2e-05
-2e-05
-2e-05
-2e-05
-2e-05
-2e-05
-2e-05
-2e-05
-2e-05
-2e-05
-2e-05
-2e-05
-2e-05
-2e-05
-2e-05
-2e-05
-2e-05
-2e-05
-2e-05
-2e-05
-2e-05
-2e-05
-2e-05
-2e-05
-2e-05
-2e-05
-2e-05
-2e-05
-2e-05
-2e-05
-2e-05
-2e-05
-2e-05
-2e-05
-2e-05
-2e-05
-3e-05
-3e-05
-3e-05
-3e-05
-3e-05
-3e-05
-3e-05
-3e-05
-3e-05
-3e-05
-3e-05
-3e-05
-3e-05
-3e-05
-3e-05
-3e-05
-3e-05
-3e-05
-3e-05
-3e-05
-3e-05
-3e-05
-3e-05
-3e-05
-3e-05
-3e-05
-3e-05
-3e-05
-3e-05
-3e-05
-3e-05
-3e-05
-3e-05
-3e-05
-3e-05
-3e-05
-4e-05
-4e-05
-4e-05
-4e-05
-4e-05
-4e-05
-4e-05
-4e-05
-4e-05
-4e-05
-4e-05
-4e-05
-4e-05
-4e-05
-4e-05
-4e-05
-4e-05
-4e-05
-4e-05
-4e-05
-4e-05
-4e-05
-4e-05
-4e-05
-4e-05
-4e-05
-4e-05
-4e-05
-4e-05
-4e-05
-4e-05
-4e-05
-4e-05
-4e-05
-4e-05
-4e-05
-5e-05
-5e-05
-5e-05
-5e-05
-5e-05
-5e-05
-5e-05
-5e-05
-5e-05
-5e-05
-5e-05
-5e-05
-5e-05
-5e-05
-5e-05
-5e-05
-5e-05
-5e-05
-5e-05
-5e-05
-5e-05
-5e-05
-5e-05
-5e-05
-5e-05
-5e-05
-5e-05
-5e-05
-5e-05
-5e-05
-5e-05
-5e-05
-5e-05
-5e-05
-5e-05
-5e-05
-6e-05
-6e-05
-6e-05
-6e-05
-6e-05
-6e-05
-6e-05
-6e-05
-6e-05
-6e-05
-6e-05
-6e-05
-6e-05
-6e-05
-6e-05
-6e-05
-6e-05
-6e-05
-6e-05
-6e-05
-6e-05
-6e-05
-6e-05
-6e-05
-6e-05
-6e-05
-6e-05
-6e-05
-6e-05
-6e-05
-6e-05
-6e-05
-6e-05
-6e-05
-6e-05
-6e-05
-7e-05
-7e-05
-7e-05
-7e-05
-7e-05
-7e-05
-7e-05
-7e-05
-7e-05
-7e-05
-7e-05
-7e-05
-7e-05
-7e-05
-7e-05
-7e-05
-7e-05
-7e-05
-7e-05
-7e-05
-7e-05
-7e-05
-7e-05
-7e-05
-7e-05
-7e-05
-7e-05
-7e-05
-7e-05
-7e-05
-7e-05
-7e-05
-7e-05
-7e-05
-7e-05
-7e-05
-8e-05
-8e-05
-8e-05
-8e-05
-8e-05
-8e-05
-8e-05
-8e-05
-8e-05
-8e-05
-8e-05
-8e-05
-8e-05
-8e-05
-8e-05
-8e-05
-8e-05
-8e-05
-8e-05
-8e-05
-8e-05
-8e-05
-8e-05
-8e-05
-8e-05
-8e-05
-8e-05
-8e-05
-8e-05
-8e-05
-8e-05
-8e-05
-8e-05
-8e-05
-8e-05
-8e-05
-9e-05
-9e-05
-9e-05
-9e-05
-9e-05
-9e-05
-9e-05
-9e-05
-9e-05
-9e-05
-9e-05
-9e-05
-9e-05
-9e-05
-9e-05
-9e-05
-9e-05
-9e-05
-9e-05
-9e-05
-9e-05
-9e-05
-9e-05
-9e-05
-9e-05
-9e-05
-9e-05
-9e-05
-9e-05
-9e-05
-9e-05
-9e-05
-9e-05
-9e-05
-9e-05
-9e-05
-0.0001
-0.0001
-0.0001
-0.0001
-0.0001
-0.0001
-0.0001
-0.0001
-0.0001
-0.0001
-0.0001
-0.0001
-0.0001
-0.0001
-0.0001
-0.0001
-0.0001
-0.0001
-0.0001
-0.0001
-0.0001
-0.0001
-0.0001
-0.0001
-0.0001
-0.0001
-0.0001
-0.0001
-0.0001
-0.0001
-0.0001
-0.0001
-0.0001
-0.0001
-0.0001
-0.0001
-0.0001
-0.0001
-0.0001
-0.0001
-0.0001
-0.0001
-0.0001
-0.0001
-0.0001
-0.0001
-0.0001
-0.0001
-0.0001
-0.0001
-0.0001
-0.0001
-0.0001
-0.0001
-0.0001
-0.0001
-0.0001
-0.0001
-0.0001
-0.0001
-0.0001
-0.0001
-0.0001
-0.0001
-0.0001
-0.0001
-0.0001
-0.0001
-0.0001
-0.0001
-0.0001
-0.0001
-0.0001
-0.0001
-0.0001
-0.0001
-0.0001
-0.0001
-0.0001
-0.0001
-0.0001
-0.0001
-0.0001
-0.0001
-0.0001
-0.0001
-0.0001
-0.0001
-0.0001
-0.0001
-0.0001
-0.0001
-0.0001
-0.0001
-0.0001
-0.0001
-0.0001
-0.0001
-0.0001
-0.0001
-0.0001
-0.0001
-0.0001
-0.0001
-0.0001
-0.0001
-0.0001
-0.0001
-0.0001
-0.0001
-0.0001
-0.0001
-0.0001
-0.0001
-0.0001
-0.0001
-0.0001
-0.0001
-0.0001
-0.0001
-0.0001
-0.0001
-0.0001
-0.0001
-0.0001
-0.0001
-0.0001
-0.0001
-0.0001
-0.0001
-0.0001
-0.0001
-0.0001
-0.0001
-0.0001
-0.0001
-0.0001
-0.0001
-0.0001
-0.0001
-0.0001
-0.0001
-0.0001
-0.0001
-0.0001
-0.0001
-0.0001
-0.0001
-0.0001
-0.0001
-0.0001
-0.0001
-0.0001
-0.0001
-0.0001
-0.0001
-0.0001
-0.0001
-0.0001
-0.0001
-0.0001
-0.0001
-0.0001
-0.0001
-0.0001
-0.0001
-0.0001
-0.0001
-0.0001
-0.0001
-0.0001
-0.0001
-0.0001
-0.0001
-0.0001
-0.0001
-0.0001
-0.0001
-0.0001
-0.0001
-0.0001
-0.0001
-0.0001
-0.0001
-0.0001
-0.0001
-0.0001
-0.0001
-0.0001
-0.0001
-0.0001
-0.0001
-0.0001
-0.0001
-0.0001
-0.0001
-0.0001
-0.0001
-0.0002
-0.0002
-0.0002
-0.0002
-0.0002
-0.0002
-0.0002
-0.0002
-0.0002
-0.0002
-0.0002
-0.0002
-0.0002
-0.0002
-0.0002
-0.0002
-0.0002
-0.0002
-0.0002
-0.0002
-0.0002
-0.0002
-0.0002
-0.0002
-0.0002
-0.0002
-0.0002
-0.0002
-0.0002
-0.0002
-0.0002
-0.0002
-0.0002
-0.0002
-0.0002
-0.0002
-0.0002
-0.0002
-0.0002
-0.0002
-0.0002
-0.0002
-0.0002
-0.0002
-0.0002
-0.0002
-0.0002
-0.0002
-0.0002
-0.0002
-0.0002
-0.0002
-0.0002
-0.0002
-0.0002
-0.0002
-0.0002
-0.0002
-0.0002
-0.0002
-0.0002
-0.0002
-0.0002
-0.0002
-0.0002
-0.0002
-0.0002
-0.0002
-0.0002
-0.0002
-0.0002
-0.0002
-0.0002
-0.0002
-0.0002
-0.0002
-0.0002
-0.0002
-0.0002
-0.0002
-0.0002
-0.0002
-0.0002
-0.0002
-0.0002
-0.0002
-0.0002
-0.0002
-0.0002
-0.0002
-0.0002
-0.0002
-0.0002
-0.0002
-0.0002
-0.0002
-0.0002
-0.0002
-0.0002
-0.0002
-0.0002
-0.0002
-0.0002
-0.0002
-0.0002
-0.0002
-0.0002
-0.0002
-0.0002
-0.0002
-0.0002
-0.0002
-0.0002
-0.0002
-0.0002
-0.0002
-0.0002
-0.0002
-0.0002
-0.0002
-0.0002
-0.0002
-0.0002
-0.0002
-0.0002
-0.0002
-0.0002
-0.0002
-0.0002
-0.0002
-0.0002
-0.0002
-0.0002
-0.0002
-0.0002
-0.0002
-0.0002
-0.0002
-0.0002
-0.0002
-0.0002
-0.0002
-0.0002
-0.0002
-0.0002
-0.0002
-0.0002
-0.0002
-0.0002
-0.0002
-0.0002
-0.0002
-0.0002
-0.0002
-0.0002
-0.0002
-0.0002
-0.0002
-0.0002
-0.0002
-0.0002
-0.0002
-0.0002
-0.0002
-0.0002
-0.0002
-0.0002
-0.0002
-0.0002
-0.0002
-0.0002
-0.0002
-0.0002
-0.0002
-0.0002
-0.0002
-0.0002
-0.0002
-0.0002
-0.0002
SCALARS strain_1 float
LOOKUP_TABLE default
-0.000052
-0.083154
-0.081897
-0.080633
-0.079363
-0.078088
-0.076807
-0.075520
-0.074230
-0.072934
-0.071635
-0.070331
-0.069024
-0.067714
-0.066402
-0.065087
-0.063770
-0.062452
-0.061133
-0.059813
-0.058493
-0.057174
-0.055856
-0.054539
-0.053224
-0.051911
-0.050602
-0.049296
-0.047994
-0.046696
-0.045404
-0.044118
-0.042839
-0.041566
-0.040301
-0.039044
-0.037796
-0.036557
-0.035329
-0.034111
-0.032905
-0.031711
-0.030529
-0.029361
-0.028207
-0.027067
-0.025942
-0.024834
-0.023741
-0.022666
-0.021609
-0.020570
-0.019549
-0.018548
-0.017567
-0.016606
-0.015667
-0.014749
-0.013853
-0.012980
-0.012129
-0.011302
-0.010498
-0.009719
-0.008964
-0.008234
-0.007529
-0.006849
-0.006195
-0.005566
-0.004964
-0.004387
-0.003837
-0.003312
-0.002814
-0.002342
-0.001896
-0.001476
-0.001082
-0.000713
-0.000370
-0.083228
-0.000002
-0.000321
-0.000665
-0.001034
-0.001430
-0.001851
-0.002298
-0.002771
-0.003271
-0.003796
-0.004348
-0.004926
-0.005530
-0.006160
-0.006816
-0.007497
-0.008204
-0.008936
-0.009692
-0.010473
-0.011278
-0.012108
-0.012960
-0.013835
-0.014733
-0.015653
-0.016594
-0.017557
-0.018540
-0.019543
-0.020565
-0.021606
-0.022666
-0.023743
-0.024837
-0.025947
-0.027074
-0.028215
-0.029372
-0.030542
-0.031726
-0.032922
-0.034130
-0.035349
-0.036580
-0.037820
-0.039070
-0.040329
-0.041596
-0.042870
-0.044152
-0.045440
-0.046734
-0.048032
-0.049336
-0.050644
-0.051955
-0.053269
-0.054586
-0.055904
-0.057224
-0.058545
-0.059866
-0.061187
-0.062508
-0.063827
-0.065145
-0.066461
-0.067775
-0.069087
-0.070394
-0.071699
-0.073000
-0.074297
-0.075589
-0.076876
-0.078158
-0.079434
-0.080705
-0.081970
-0.083221
-0.083214
-0.083207
-0.083200
-0.083193
-0.083185
-0.083178
-0.083170
-0.083162
-0.000042
-0.000033
-0.000026
-0.000019
-0.000013
-0.000009
-0.000006
-0.000003
-0.000002
-0.000321
-0.000322
-0.000324
-0.000327
-0.000332
-0.000337
-0.000344
-0.000352
-0.000360
-0.000665
-0.000666
-0.000668
-0.000671
-0.000675
-0.000681
-0.000687
-0.000695
-0.000703
-0.001034
-0.001035
-0.001037
-0.001040
-0.001044
-0.001050
-0.001056
-0.001064
-0.001072
-0.001429
-0.001430
-0.001432
-0.001435
-0.001439
-0.001444
-0.001450
-0.001458
-0.001466
-0.001850
-0.001851
-0.001853
-0.001856
-0.001860
-0.001864
-0.001871
-0.001878
-0.001886
-0.002297
-0.002298
-0.002299
-0.002302
-0.002306
-0.002311
-0.002317
-0.002324
-0.002333
-0.002770
-0.002771
-0.002772
-0.002775
-0.002779
-0.002784
-0.002789
-0.002796
-0.002805
-0.003270
-0.003270
-0.003271
-0.003274
-0.003277
-0.003282
-0.003288
-0.003295
-0.003303
-0.003795
-0.003795
-0.003797
-0.003799
-0.003802
-0.003807
-0.003813
-0.003820
-0.003828
-0.004347
-0.004347
-0.004348
-0.004350
-0.004354
-0.004358
-0.004364
-0.004370
-0.004378
-0.004925
-0.004925
-0.004926
-0.004928
-0.004931
-0.004935
-0.004941
-0.004947
-0.004955
-0.005529
-0.005529
-0.005529
-0.005531
-0.005534
-0.005538
-0.005544
-0.005550
-0.005558
-0.006159
-0.006158
-0.006159
-0.006161
-0.006164
-0.006168
-0.006173
-0.006179
-0.006186
-0.006814
-0.006814
-0.006814
-0.006816
-0.006819
-0.006823
-0.006828
-0.006833
-0.006841
-0.007495
-0.007495
-0.007495
-0.007497
-0.007499
-0.007503
-0.007508
-0.007514
-0.007521
-0.008202
-0.008201
-0.008201
-0.008203
-0.008205
-0.008209
-0.008213
-0.008219
-0.008226
-0.008933
-0.008933
-0.008933
-0.008934
-0.008936
-0.008940
-0.008944
-0.008949
-0.008956
-0.009690
-0.009689
-0.009689
-0.009690
-0.009692
-0.009695
-0.009700
-0.009705
-0.009711
-0.010471
-0.010470
-0.010470
-0.010470
-0.010472
-0.010475
-0.010479
-0.010485
-0.010491
-0.011276
-0.011275
-0.011274
-0.011275
-0.011277
-0.011280
-0.011284
-0.011289
-0.011294
-0.012105
-0.012104
-0.012103
-0.012103
-0.012105
-0.012108
-0.012112
-0.012116
-0.012122
-0.012957
-0.012956
-0.012955
-0.012955
-0.012957
-0.012959
-0.012963
-0.012967
-0.012973
-0.013832
-0.013831
-0.013830
-0.013830
-0.013831
-0.013833
-0.013837
-0.013841
-0.013847
-0.014730
-0.014728
-0.014727
-0.014727
-0.014728
-0.014731
-0.014733
-0.014738
-0.014743
-0.015650
-0.015648
-0.015647
-0.015647
-0.015647
-0.015649
-0.015652
-0.015656
-0.015661
-0.016591
-0.016589
-0.016588
-0.016587
-0.016588
-0.016590
-0.016592
-0.016596
-0.016601
-0.017554
-0.017551
-0.017550
-0.017549
-0.017550
-0.017551
-0.017554
-0.017557
-0.017562
-0.018536
-0.018534
-0.018532
-0.018532
-0.018532
-0.018533
-0.018536
-0.018539
-0.018543
-0.019539
-0.019537
-0.019535
-0.019534
-0.019534
-0.019535
-0.019537
-0.019540
-0.019544
-0.020561
-0.020559
-0.020557
-0.020556
-0.020556
-0.020557
-0.020558
-0.020561
-0.020565
-0.021602
-0.021600
-0.021598
-0.021596
-0.021596
-0.021597
-0.021599
-0.021601
-0.021604
-0.022662
-0.022659
-0.022657
-0.022655
-0.022655
-0.022655
-0.022657
-0.022659
-0.022662
-0.023739
-0.023736
-0.023733
-0.023732
-0.023731
-0.023732
-0.023733
-0.023735
-0.023738
-0.024833
-0.024830
-0.024827
-0.024825
-0.024825
-0.024825
-0.024826
-0.024828
-0.024830
-0.025943
-0.025940
-0.025937
-0.025936
-0.025935
-0.025935
-0.025935
-0.025937
-0.025939
-0.027070
-0.027066
-0.027064
-0.027062
-0.027060
-0.027060
-0.027061
-0.027062
-0.027064
-0.028211
-0.028207
-0.028205
-0.028203
-0.028201
-0.028201
-0.028201
-0.028202
-0.028204
-0.029367
-0.029364
-0.029361
-0.029358
-0.029357
-0.029356
-0.029356
-0.029357
-0.029359
-0.030537
-0.030534
-0.030530
-0.030528
-0.030527
-0.030525
-0.030525
-0.030526
-0.030527
-0.031721
-0.031717
-0.031714
-0.031711
-0.031709
-0.031708
-0.031708
-0.031708
-0.031709
-0.032917
-0.032913
-0.032909
-0.032907
-0.032905
-0.032903
-0.032903
-0.032903
-0.032903
-0.034125
-0.034121
-0.034117
-0.034114
-0.034112
-0.034111
-0.034110
-0.034109
-0.034110
-0.035344
-0.035340
-0.035336
-0.035333
-0.035331
-0.035329
-0.035328
-0.035328
-0.035328
-0.036575
-0.036570
-0.036566
-0.036563
-0.036561
-0.036558
-0.036557
-0.036556
-0.036557
-0.037815
-0.037810
-0.037806
-0.037803
-0.037800
-0.037798
-0.037797
-0.037796
-0.037795
-0.039065
-0.039060
-0.039056
-0.039053
-0.039050
-0.039047
-0.039046
-0.039044
-0.039044
-0.040323
-0.040319
-0.040314
-0.040311
-0.040308
-0.040305
-0.040303
-0.040302
-0.040301
-0.041590
-0.041585
-0.041581
-0.041577
-0.041574
-0.041571
-0.041569
-0.041568
-0.041566
-0.042865
-0.042860
-0.042856
-0.042851
-0.042848
-0.042845
-0.042842
-0.042841
-0.042839
-0.044146
-0.044141
-0.044137
-0.044133
-0.044129
-0.044126
-0.044123
-0.044121
-0.044119
-0.045434
-0.045429
-0.045424
-0.045420
-0.045416
-0.045413
-0.045410
-0.045408
-0.045406
-0.046728
-0.046722
-0.046718
-0.046713
-0.046709
-0.046706
-0.046703
-0.046701
-0.046698
-0.048027
-0.048021
-0.048017
-0.048012
-0.048008
-0.048004
-0.048001
-0.047998
-0.047996
-0.049330
-0.049325
-0.049320
-0.049315
-0.049311
-0.049307
-0.049304
-0.049301
-0.049298
-0.050638
-0.050632
-0.050627
-0.050623
-0.050618
-0.050614
-0.050610
-0.050607
-0.050604
-0.051949
-0.051943
-0.051938
-0.051933
-0.051929
-0.051925
-0.051921
-0.051918
-0.051914
-0.053263
-0.053258
-0.053252
-0.053247
-0.053242
-0.053238
-0.053234
-0.053230
-0.053227
-0.054580
-0.054574
-0.054569
-0.054563
-0.054558
-0.054554
-0.054550
-0.054546
-0.054543
-0.055898
-0.055892
-0.055887
-0.055881
-0.055877
-0.055872
-0.055867
-0.055863
-0.055860
-0.057218
-0.057212
-0.057207
-0.057201
-0.057196
-0.057191
-0.057187
-0.057182
-0.057178
-0.058539
-0.058533
-0.058527
-0.058521
-0.058516
-0.058511
-0.058506
-0.058502
-0.058498
-0.059860
-0.059854
-0.059848