# vtk DataFile Version 2.0
Generated volume Mesh
ASCII
DATASET UNSTRUCTURED_GRID
POINTS 891 float
0.005000 0.100000 0.000000
0.005000 0.000000 0.000000
0.005000 0.001250 0.000000
0.005000 0.002500 0.000000
0.005000 0.003750 0.000000
0.005000 0.005000 0.000000
0.005000 0.006250 0.000000
0.005000 0.007500 0.000000
0.005000 0.008750 0.000000
0.005000 0.010000 0.000000
0.005000 0.011250 0.000000
0.005000 0.012500 0.000000
0.005000 0.013750 0.000000
0.005000 0.015000 0.000000
0.005000 0.016250 0.000000
0.005000 0.017500 0.000000
0.005000 0.018750 0.000000
0.005000 0.020000 0.000000
0.005000 0.021250 0.000000
0.005000 0.022500 0.000000
0.005000 0.023750 0.000000
0.005000 0.025000 0.000000
0.005000 0.026250 0.000000
0.005000 0.027500 0.000000
0.005000 0.028750 0.000000
0.005000 0.030000 0.000000
0.005000 0.031250 0.000000
0.005000 0.032500 0.000000
0.005000 0.033750 0.000000
0.005000 0.035000 0.000000
0.005000 0.036250 0.000000
0.005000 0.037500 0.000000
0.005000 0.038750 0.000000
0.005000 0.040000 0.000000
0.005000 0.041250 0.000000
0.005000 0.042500 0.000000
0.005000 0.043750 0.000000
0.005000 0.045000 0.000000
0.005000 0.046250 0.000000
0.005000 0.047500 0.000000
0.005000 0.048750 0.000000
0.005000 0.050000 0.000000
0.005000 0.051250 0.000000
0.005000 0.052500 0.000000
0.005000 0.053750 0.000000
0.005000 0.055000 0.000000
0.005000 0.056250 0.000000
0.005000 0.057500 0.000000
0.005000 0.058750 0.000000
0.005000 0.060000 0.000000
0.005000 0.061250 0.000000
0.005000 0.062500 0.000000
0.005000 0.063750 0.000000
0.005000 0.065000 0.000000
0.005000 0.066250 0.000000
0.005000 0.067500 0.000000
0.005000 0.068750 0.000000
0.005000 0.070000 0.000000
0.005000 0.071250 0.000000
0.005000 0.072500 0.000000
0.005000 0.073750 0.000000
0.005000 0.075000 0.000000
0.005000 0.076250 0.000000
0.005000 0.077500 0.000000
0.005000 0.078750 0.000000
0.005000 0.080000 0.000000
0.005000 0.081250 0.000000
0.005000 0.082500 0.000000
0.005000 0.083750 0.000000
0.005000 0.085000 0.000000
0.005000 0.086250 0.000000
0.005000 0.087500 0.000000
0.005000 0.088750 0.000000
0.005000 0.090000 0.000000
0.005000 0.091250 0.000000
0.005000 0.092500 0.000000
0.005000 0.093750 0.000000
0.005000 0.095000 0.000000
0.005000 0.096250 0.000000
0.005000 0.097500 0.000000
0.005000 0.098750 0.000000
0.000000 0.000000 0.000000
0.000000 0.100000 0.000000
0.000000 0.098750 0.000000
0.000000 0.097500 0.000000
0.000000 0.096250 0.000000
0.000000 0.095000 0.000000
0.000000 0.093750 0.000000
0.000000 0.092500 0.000000
0.000000 0.091250 0.000000
0.000000 0.090000 0.000000
0.000000 0.088750 0.000000
0.000000 0.087500 0.000000
0.000000 0.086250 0.000000
0.000000 0.085000 0.000000
0.000000 0.083750 0.000000
0.000000 0.082500 0.000000
0.000000 0.081250 0.000000
0.000000 0.080000 0.000000
0.000000 0.078750 0.000000
0.000000 0.077500 0.000000
0.000000 0.076250 0.000000
0.000000 0.075000 0.000000
0.000000 0.073750 0.000000
0.000000 0.072500 0.000000
0.000000 0.071250 0.000000
0.000000 0.070000 0.000000
0.000000 0.068750 0.000000
0.000000 0.067500 0.000000
0.000000 0.066250 0.000000
0.000000 0.065000 0.000000
0.000000 0.063750 0.000000
0.000000 0.062500 0.000000
0.000000 0.061250 0.000000
0.000000 0.060000 0.000000
0.000000 0.058750 0.000000
0.000000 0.057500 0.000000
0.000000 0.056250 0.000000
0.000000 0.055000 0.000000
0.000000 0.053750 0.000000
0.000000 0.052500 0.000000
0.000000 0.051250 0.000000
0.000000 0.050000 0.000000
0.000000 0.048750 0.000000
0.000000 0.047500 0.000000
0.000000 0.046250 0.000000
0.000000 0.045000 0.000000
0.000000 0.043750 0.000000
0.000000 0.042500 0.000000
0.000000 0.041250 0.000000
0.000000 0.040000 0.000000
0.000000 0.038750 0.000000
0.000000 0.037500 0.000000
0.000000 0.036250 0.000000
0.000000 0.035000 0.000000
0.000000 0.033750 0.000000
0.000000 0.032500 0.000000
0.000000 0.031250 0.000000
0.000000 0.030000 0.000000
0.000000 0.028750 0.000000
0.000000 0.027500 0.000000
0.000000 0.026250 0.000000
0.000000 0.025000 0.000000
0.000000 0.023750 0.000000
0.000000 0.022500 0.000000
0.000000 0.021250 0.000000
0.000000 0.020000 0.000000
0.000000 0.018750 0.000000
0.000000 0.017500 0.000000
0.000000 0.016250 0.000000
0.000000 0.015000 0.000000
0.000000 0.013750 0.000000
0.000000 0.012500 0.000000
0.000000 0.011250 0.000000
0.000000 0.010000 0.000000
0.000000 0.008750 0.000000
0.000000 0.007500 0.000000
0.000000 0.006250 0.000000
0.000000 0.005000 0.000000
0.000000 0.003750 0.000000
0.000000 0.002500 0.000000
0.000000 0.001250 0.000000
0.000500 0.000000 0.000000
0.001000 0.000000 0.000000
0.001500 0.000000 0.000000
0.002000 0.000000 0.000000
0.002500 0.000000 0.000000
0.003000 0.000000 0.000000
0.003500 0.000000 0.000000
0.004000 0.000000 0.000000
0.004500 0.000000 0.000000
0.004500 0.100000 0.000000
0.004000 0.100000 0.000000
0.003500 0.100000 0.000000
0.003000 0.100000 0.000000
0.002500 0.100000 0.000000
0.002000 0.100000 0.000000
0.001500 0.100000 0.000000
0.001000 0.100000 0.000000
0.000500 0.100000 0.000000
0.000500 0.098750 0.000000
0.001000 0.098750 0.000000
0.001500 0.098750 0.000000
0.002000 0.098750 0.000000
0.002500 0.098750 0.000000
0.003000 0.098750 0.000000
0.003500 0.098750 0.000000
0.004000 0.098750 0.000000
0.004500 0.098750 0.000000
0.000500 0.097500 0.000000
0.001000 0.097500 0.000000
0.001500 0.097500 0.000000
0.002000 0.097500 0.000000
0.002500 0.097500 0.000000
0.003000 0.097500 0.000000
0.003500 0.097500 0.000000
0.004000 0.097500 0.000000
0.004500 0.097500 0.000000
0.000500 0.096250 0.000000
0.001000 0.096250 0.000000
0.001500 0.096250 0.000000
0.002000 0.096250 0.000000
0.002500 0.096250 0.000000
0.003000 0.096250 0.000000
0.003500 0.096250 0.000000
0.004000 0.096250 0.000000
0.004500 0.096250 0.000000
0.000500 0.095000 0.000000
0.001000 0.095000 0.000000
0.001500 0.095000 0.000000
0.002000 0.095000 0.000000
0.002500 0.095000 0.000000
0.003000 0.095000 0.000000
0.003500 0.095000 0.000000
0.004000 0.095000 0.000000
0.004500 0.095000 0.000000
0.000500 0.093750 0.000000
0.001000 0.093750 0.000000
0.001500 0.093750 0.000000
0.002000 0.093750 0.000000
0.002500 0.093750 0.000000
0.003000 0.093750 0.000000
0.003500 0.093750 0.000000
0.004000 0.093750 0.000000
0.004500 0.093750 0.000000
0.000500 0.092500 0.000000
0.001000 0.092500 0.000000
0.001500 0.092500 0.000000
0.002000 0.092500 0.000000
0.002500 0.092500 0.000000
0.003000 0.092500 0.000000
0.003500 0.092500 0.000000
0.004000 0.092500 0.000000
0.004500 0.092500 0.000000
0.000500 0.091250 0.000000
0.001000 0.091250 0.000000
0.001500 0.091250 0.000000
0.002000 0.091250 0.000000
0.002500 0.091250 0.000000
0.003000 0.091250 0.000000
0.003500 0.091250 0.000000
0.004000 0.091250 0.000000
0.004500 0.091250 0.000000
0.000500 0.090000 0.000000
0.001000 0.090000 0.000000
0.001500 0.090000 0.000000
0.002000 0.090000 0.000000
0.002500 0.090000 0.000000
0.003000 0.090000 0.000000
0.003500 0.090000 0.000000
0.004000 0.090000 0.000000
0.004500 0.090000 0.000000
0.000500 0.088750 0.000000
0.001000 0.088750 0.000000
0.001500 0.088750 0.000000
0.002000 0.088750 0.000000
0.002500 0.088750 0.000000
0.003000 0.088750 0.000000
0.003500 0.088750 0.000000
0.004000 0.088750 0.000000
0.004500 0.088750 0.000000
0.000500 0.087500 0.000000
0.001000 0.087500 0.000000
0.001500 0.087500 0.000000
0.002000 0.087500 0.000000
0.002500 0.087500 0.000000
0.003000 0.087500 0.000000
0.003500 0.087500 0.000000
0.004000 0.087500 0.000000
0.004500 0.087500 0.000000
0.000500 0.086250 0.000000
0.001000 0.086250 0.000000
0.001500 0.086250 0.000000
0.002000 0.086250 0.000000
0.002500 0.086250 0.000000
0.003000 0.086250 0.000000
0.003500 0.086250 0.000000
0.004000 0.086250 0.000000
0.004500 0.086250 0.000000
0.000500 0.085000 0.000000
0.001000 0.085000 0.000000
0.001500 0.085000 0.000000
0.002000 0.085000 0.000000
0.002500 0.085000 0.000000
0.003000 0.085000 0.000000
0.003500 0.085000 0.000000
0.004000 0.085000 0.000000
0.004500 0.085000 0.000000
0.000500 0.083750 0.000000
0.001000 0.083750 0.000000
0.001500 0.083750 0.000000
0.002000 0.083750 0.000000
0.002500 0.083750 0.000000
0.003000 0.083750 0.000000
0.003500 0.083750 0.000000
0.004000 0.083750 0.000000
0.004500 0.083750 0.000000
0.000500 0.082500 0.000000
0.001000 0.082500 0.000000
0.001500 0.082500 0.000000
0.002000 0.082500 0.000000
0.002500 0.082500 0.000000
0.003000 0.082500 0.000000
0.003500 0.082500 0.000000
0.004000 0.082500 0.000000
0.004500 0.082500 0.000000
0.000500 0.081250 0.000000
0.001000 0.081250 0.000000
0.001500 0.081250 0.000000
0.002000 0.081250 0.000000
0.002500 0.081250 0.000000
0.003000 0.081250 0.000000
0.003500 0.081250 0.000000
0.004000 0.081250 0.000000
0.004500 0.081250 0.000000
0.000500 0.080000 0.000000
0.001000 0.080000 0.000000
0.001500 0.080000 0.000000
0.002000 0.080000 0.000000
0.002500 0.080000 0.000000
0.003000 0.080000 0.000000
0.003500 0.080000 0.000000
0.004000 0.080000 0.000000
0.004500 0.080000 0.000000
0.000500 0.078750 0.000000
0.001000 0.078750 0.000000
0.001500 0.078750 0.000000
0.002000 0.078750 0.000000
0.002500 0.078750 0.000000
0.003000 0.078750 0.000000
0.003500 0.078750 0.000000
0.004000 0.078750 0.000000
0.004500 0.078750 0.000000
0.000500 0.077500 0.000000
0.001000 0.077500 0.000000
0.001500 0.077500 0.000000
0.002000 0.077500 0.000000
0.002500 0.077500 0.000000
0.003000 0.077500 0.000000
0.003500 0.077500 0.000000
0.004000 0.077500 0.000000
0.004500 0.077500 0.000000
0.000500 0.076250 0.000000
0.001000 0.076250 0.000000
0.001500 0.076250 0.000000
0.002000 0.076250 0.000000
0.002500 0.076250 0.000000
0.003000 0.076250 0.000000
0.003500 0.076250 0.000000
0.004000 0.076250 0.000000
0.004500 0.076250 0.000000
0.000500 0.075000 0.000000
0.001000 0.075000 0.000000
0.001500 0.075000 0.000000
0.002000 0.075000 0.000000
0.002500 0.075000 0.000000
0.003000 0.075000 0.000000
0.003500 0.075000 0.000000
0.004000 0.075000 0.000000
0.004500 0.075000 0.000000
0.000500 0.073750 0.000000
0.001000 0.073750 0.000000
0.001500 0.073750 0.000000
0.002000 0.073750 0.000000
0.002500 0.073750 0.000000
0.003000 0.073750 0.000000
[...]
POINT_DATA 891
SCALARS u1 float
LOOKUP_TABLE default
6e-18
-2e-06
-2e-06
-2e-06
-2e-06
-2e-06
-2e-06
-2e-06
-2e-06
-2e-06
-2e-06
-2e-06
-2e-06
-2e-06
-2e-06
-2e-06
-2e-06
-2e-06
-2e-06
-2e-06
-2e-06
-2e-06
-2e-06
-2e-06
-2e-06
-2e-06
-2e-06
-2e-06
-2e-06
-2e-06
-2e-06
-2e-06
-2e-06
-2e-06
-2e-06
-2e-06
-2e-06
-2e-06
-2e-06
-2e-06
-2e-06
-2e-06
-2e-06
-2e-06
-2e-06
-2e-06
-2e-06
-2e-06
-2e-06
-2e-06
-2e-06
-2e-06
-2e-06
-2e-06
-2e-06
-2e-06
-2e-06
-2e-06
-2e-06
-2e-06
-2e-06
-2e-06
-2e-06
-2e-06
-2e-06
-2e-06
-2e-06
-2e-06
-2e-06
-2e-06
-2e-06
-2e-06
-2e-06
-2e-06
-2e-06
-2e-06
-2e-06
-2e-06
-2e-06
-2e-06
-1e-06
2e-06
-4e-18
1e-06
2e-06
2e-06
2e-06
2e-06
2e-06
2e-06
2e-06
2e-06
2e-06
2e-06
2e-06
2e-06
2e-06
2e-06
2e-06
2e-06
2e-06
2e-06
2e-06
2e-06
2e-06
2e-06
2e-06
2e-06
2e-06
2e-06
2e-06
2e-06
2e-06
2e-06
2e-06
2e-06
2e-06
2e-06
2e-06
2e-06
2e-06
2e-06
2e-06
2e-06
2e-06
2e-06
2e-06
2e-06
2e-06
2e-06
2e-06
2e-06
2e-06
2e-06
2e-06
2e-06
2e-06
2e-06
2e-06
2e-06
2e-06
2e-06
2e-06
2e-06
2e-06
2e-06
2e-06
2e-06
2e-06
2e-06
2e-06
2e-06
2e-06
2e-06
2e-06
2e-06
2e-06
2e-06
2e-06
2e-06
2e-06
2e-06
1e-06
1e-06
7e-07
3e-07
3e-14
-3e-07
-7e-07
-1e-06
-1e-06
-2e-18
4e-18
4e-18
-2e-17
1e-17
2e-18
-3e-17
-8e-18
5e-18
1e-06
7e-07
4e-07
2e-07
1e-14
-2e-07
-4e-07
-7e-07
-1e-06
1e-06
1e-06
6e-07
3e-07
2e-14
-3e-07
-6e-07
-1e-06
-1e-06
1e-06
1e-06
7e-07
3e-07
2e-14
-3e-07
-7e-07
-1e-06
-1e-06
1e-06
1e-06
7e-07
3e-07
2e-14
-3e-07
-7e-07
-1e-06
-1e-06
1e-06
1e-06
7e-07
3e-07
3e-14
-3e-07
-7e-07
-1e-06
-1e-06
1e-06
1e-06
7e-07
3e-07
3e-14
-3e-07
-7e-07
-1e-06
-1e-06
1e-06
1e-06
7e-07
3e-07
3e-14
-3e-07
-7e-07
-1e-06
-1e-06
1e-06
1e-06
7e-07
3e-07
3e-14
-3e-07
-7e-07
-1e-06
-1e-06
1e-06
1e-06
7e-07
3e-07
3e-14
-3e-07
-7e-07
-1e-06
-1e-06
1e-06
1e-06
7e-07
3e-07
3e-14
-3e-07
-7e-07
-1e-06
-1e-06
1e-06
1e-06
7e-07
3e-07
3e-14
-3e-07
-7e-07
-1e-06
-1e-06
1e-06
1e-06
7e-07
3e-07
3e-14
-3e-07
-7e-07
-1e-06
-1e-06
1e-06
1e-06
7e-07
3e-07
3e-14
-3e-07
-7e-07
-1e-06
-1e-06
1e-06
1e-06
7e-07
3e-07
3e-14
-3e-07
-7e-07
-1e-06
-1e-06
1e-06
1e-06
7e-07
3e-07
3e-14
-3e-07
-7e-07
-1e-06
-1e-06
1e-06
1e-06
7e-07
3e-07
3e-14
-3e-07
-7e-07
-1e-06
-1e-06
1e-06
1e-06
7e-07
3e-07
3e-14
-3e-07
-7e-07
-1e-06
-1e-06
1e-06
1e-06
7e-07
3e-07
3e-14
-3e-07
-7e-07
-1e-06
-1e-06
1e-06
1e-06
7e-07
3e-07
3e-14
-3e-07
-7e-07
-1e-06
-1e-06
1e-06
1e-06
7e-07
3e-07
3e-14
-3e-07
-7e-07
-1e-06
-1e-06
1e-06
1e-06
7e-07
3e-07
3e-14
-3e-07
-7e-07
-1e-06
-1e-06
1e-06
1e-06
7e-07
3e-07
3e-14
-3e-07
-7e-07
-1e-06
-1e-06
1e-06
1e-06
7e-07
3e-07
3e-14
-3e-07
-7e-07
-1e-06
-1e-06
1e-06
1e-06
7e-07
3e-07
3e-14
-3e-07
-7e-07
-1e-06
-1e-06
1e-06
1e-06
7e-07
3e-07
3e-14
-3e-07
-7e-07
-1e-06
-1e-06
1e-06
1e-06
7e-07
3e-07
3e-14
-3e-07
-7e-07
-1e-06
-1e-06
1e-06
1e-06
7e-07
3e-07
3e-14
-3e-07
-7e-07
-1e-06
-1e-06
1e-06
1e-06
7e-07
3e-07
3e-14
-3e-07
-7e-07
-1e-06
-1e-06
1e-06
1e-06
7e-07
3e-07
3e-14
-3e-07
-7e-07
-1e-06
-1e-06
1e-06
1e-06
7e-07
3e-07
3e-14
-3e-07
-7e-07
-1e-06
-1e-06
1e-06
1e-06
7e-07
3e-07
3e-14
-3e-07
-7e-07
-1e-06
-1e-06
1e-06
1e-06
7e-07
3e-07
3e-14
-3e-07
-7e-07
-1e-06
-1e-06
1e-06
1e-06
7e-07
3e-07
3e-14
-3e-07
-7e-07
-1e-06
-1e-06
1e-06
1e-06
7e-07
3e-07
3e-14
-3e-07
-7e-07
-1e-06
-1e-06
1e-06
1e-06
7e-07
3e-07
3e-14
-3e-07
-7e-07
-1e-06
-1e-06
1e-06
1e-06
7e-07
3e-07
3e-14
-3e-07
-7e-07
-1e-06
-1e-06
1e-06
1e-06
7e-07
3e-07
3e-14
-3e-07
-7e-07
-1e-06
-1e-06
1e-06
1e-06
7e-07
3e-07
3e-14
-3e-07
-7e-07
-1e-06
-1e-06
1e-06
1e-06
7e-07
3e-07
3e-14
-3e-07
-7e-07
-1e-06
-1e-06
1e-06
1e-06
7e-07
3e-07
3e-14
-3e-07
-7e-07
-1e-06
-1e-06
1e-06
1e-06
7e-07
3e-07
3e-14
-3e-07
-7e-07
-1e-06
-1e-06
1e-06
1e-06
7e-07
3e-07
3e-14
-3e-07
-7e-07
-1e-06
-1e-06
1e-06
1e-06
7e-07
3e-07
3e-14
-3e-07
-7e-07
-1e-06
-1e-06
1e-06
1e-06
7e-07
3e-07
3e-14
-3e-07
-7e-07
-1e-06
-1e-06
1e-06
1e-06
7e-07
3e-07
3e-14
-3e-07
-7e-07
-1e-06
-1e-06
1e-06
1e-06
7e-07
3e-07
3e-14
-3e-07
-7e-07
-1e-06
-1e-06
1e-06
1e-06
7e-07
3e-07
3e-14
-3e-07
-7e-07
-1e-06
-1e-06
1e-06
1e-06
7e-07
3e-07
3e-14
-3e-07
-7e-07
-1e-06
-1e-06
1e-06
1e-06
7e-07
3e-07
3e-14
-3e-07
-7e-07
-1e-06
-1e-06
1e-06
1e-06
7e-07
3e-07
3e-14
-3e-07
-7e-07
-1e-06
-1e-06
1e-06
1e-06
7e-07
3e-07
3e-14
-3e-07
-7e-07
-1e-06
-1e-06
1e-06
1e-06
7e-07
3e-07
3e-14
-3e-07
-7e-07
-1e-06
-1e-06
1e-06
1e-06
7e-07
3e-07
3e-14
-3e-07
-7e-07
-1e-06
-1e-06
1e-06
1e-06
7e-07
3e-07
3e-14
-3e-07
-7e-07
-1e-06
-1e-06
1e-06
1e-06
7e-07
3e-07
3e-14
-3e-07
-7e-07
-1e-06
-1e-06
1e-06
1e-06
7e-07
3e-07
3e-14
-3e-07
-7e-07
-1e-06
-1e-06
1e-06
1e-06
7e-07
3e-07
3e-14
-3e-07
-7e-07
-1e-06
-1e-06
1e-06
1e-06
7e-07
3e-07
3e-14
-3e-07
-7e-07
-1e-06
-1e-06
1e-06
1e-06
7e-07
3e-07
3e-14
-3e-07
-7e-07
-1e-06
-1e-06
1e-06
1e-06
7e-07
3e-07
3e-14
-3e-07
-7e-07
-1e-06
-1e-06
1e-06
1e-06
7e-07
3e-07
3e-14
-3e-07
-7e-07
-1e-06
-1e-06
1e-06
1e-06
7e-07
3e-07
3e-14
-3e-07
-7e-07
-1e-06
-1e-06
1e-06
1e-06
7e-07
3e-07
3e-14
-3e-07
-7e-07
-1e-06
-1e-06
1e-06
1e-06
7e-07
3e-07
3e-14
-3e-07
-7e-07
-1e-06
-1e-06
1e-06
1e-06
7e-07
3e-07
3e-14
-3e-07
-7e-07
-1e-06
-1e-06
1e-06
1e-06
7e-07
3e-07
3e-14
-3e-07
-7e-07
-1e-06
-1e-06
1e-06
1e-06
7e-07
3e-07
3e-14
-3e-07
-7e-07
-1e-06
-1e-06
1e-06
1e-06
7e-07
3e-07
3e-14
-3e-07
-7e-07
-1e-06
-1e-06
1e-06
1e-06
7e-07
3e-07
3e-14
-3e-07
-7e-07
-1e-06
-1e-06
1e-06
1e-06
7e-07
3e-07
3e-14
-3e-07
-7e-07
-1e-06
-1e-06
1e-06
1e-06
7e-07
3e-07
3e-14
-3e-07
-7e-07
-1e-06
-1e-06
1e-06
1e-06
7e-07
3e-07
3e-14
-3e-07
-7e-07
-1e-06
-1e-06
1e-06
1e-06
7e-07
3e-07
3e-14
-3e-07
-7e-07
-1e-06
-1e-06
1e-06
1e-06
7e-07
3e-07
3e-14
-3e-07
-7e-07
-1e-06
-1e-06
1e-06
1e-06
7e-07
3e-07
3e-14
-3e-07
-7e-07
-1e-06
-1e-06
1e-06
1e-06
7e-07
3e-07
3e-14
-3e-07
-7e-07
-1e-06
-1e-06
1e-06
1e-06
7e-07
3e-07
3e-14
-3e-07
-7e-07
-1e-06
-1e-06
1e-06
1e-06
7e-07
3e-07
3e-14
-3e-07
-7e-07
-1e-06
-1e-06
1e-06
1e-06
7e-07
3e-07
3e-14
-3e-07
-7e-07
-1e-06
-1e-06
SCALARS u2 float
LOOKUP_TABLE default
-2e-17
-0.0005
-0.0004
-0.0004
-0.0004
-0.0004
-0.0004
-0.0004
-0.0004
-0.0004
-0.0004
-0.0004
-0.0004
-0.0004
-0.0004
-0.0004
-0.0004
-0.0004
-0.0004
-0.0003
-0.0003
-0.0003
-0.0003
-0.0003
-0.0003
-0.0003
-0.0003
-0.0003
-0.0003
-0.0003
-0.0003
-0.0003
-0.0003
-0.0003
-0.0003
-0.0003
-0.0003
-0.0002
-0.0002
-0.0002
-0.0002
-0.0002
-0.0002
-0.0002
-0.0002
-0.0002
-0.0002
-0.0002
-0.0002
-0.0002
-0.0002
-0.0002
-0.0002
-0.0002
-0.0002
-0.0001
-0.0001
-0.0001
-0.0001
-0.0001
-0.0001
-0.0001
-0.0001
-0.0001
-0.0001
-9e-05
-8e-05
-8e-05
-7e-05
-7e-05
-6e-05
-6e-05
-5e-05
-4e-05
-4e-05
-3e-05
-3e-05
-2e-05
-2e-05
-1e-05
-6e-06
-0.0005
5e-18
-6e-06
-1e-05
-2e-05
-2e-05
-3e-05
-3e-05
-4e-05
-4e-05
-5e-05
-6e-05
-6e-05
-7e-05
-7e-05
-8e-05
-8e-05
-9e-05
-0.0001
-0.0001
-0.0001
-0.0001
-0.0001
-0.0001
-0.0001
-0.0001
-0.0001
-0.0001
-0.0002
-0.0002
-0.0002
-0.0002
-0.0002
-0.0002
-0.0002
-0.0002
-0.0002
-0.0002
-0.0002
-0.0002
-0.0002
-0.0002
-0.0002
-0.0002
-0.0002
-0.0002
-0.0003
-0.0003
-0.0003
-0.0003
-0.0003
-0.0003
-0.0003
-0.0003
-0.0003
-0.0003
-0.0003
-0.0003
-0.0003
-0.0003
-0.0003
-0.0003
-0.0003
-0.0003
-0.0004
-0.0004
-0.0004
-0.0004
-0.0004
-0.0004
-0.0004
-0.0004
-0.0004
-0.0004
-0.0004
-0.0004
-0.0004
-0.0004
-0.0004
-0.0004
-0.0004
-0.0005
-0.0005
-0.0005
-0.0005
-0.0005
-0.0005
-0.0005
-0.0005
-0.0005
2e-17
3e-17
2e-17
3e-17
-9e-18
-4e-17
4e-17
-4e-17
-6e-17
-6e-06
-6e-06
-5e-06
-5e-06
-5e-06
-5e-06
-5e-06
-6e-06
-6e-06
-1e-05
-1e-05
-1e-05
-1e-05
-1e-05
-1e-05
-1e-05
-1e-05
-1e-05
-2e-05
-2e-05
-2e-05
-2e-05
-2e-05
-2e-05
-2e-05
-2e-05
-2e-05
-2e-05
-2e-05
-2e-05
-2e-05
-2e-05
-2e-05
-2e-05
-2e-05
-2e-05
-3e-05
-3e-05
-3e-05
-3e-05
-3e-05
-3e-05
-3e-05
-3e-05
-3e-05
-3e-05
-3e-05
-3e-05
-3e-05
-3e-05
-3e-05
-3e-05
-3e-05
-3e-05
-4e-05
-4e-05
-4e-05
-4e-05
-4e-05
-4e-05
-4e-05
-4e-05
-4e-05
-4e-05
-4e-05
-4e-05
-4e-05
-4e-05
-4e-05
-4e-05
-4e-05
-4e-05
-5e-05
-5e-05
-5e-05
-5e-05
-5e-05
-5e-05
-5e-05
-5e-05
-5e-05
-6e-05
-6e-05
-6e-05
-6e-05
-6e-05
-6e-05
-6e-05
-6e-05
-6e-05
-6e-05
-6e-05
-6e-05
-6e-05
-6e-05
-6e-05
-6e-05
-6e-05
-6e-05
-7e-05
-7e-05
-7e-05
-7e-05
-7e-05
-7e-05
-7e-05
-7e-05
-7e-05
-7e-05
-7e-05
-7e-05
-7e-05
-7e-05
-7e-05
-7e-05
-7e-05
-7e-05
-8e-05
-8e-05
-8e-05
-8e-05
-8e-05
-8e-05
-8e-05
-8e-05
-8e-05
-8e-05
-8e-05
-8e-05
-8e-05
-8e-05
-8e-05
-8e-05
-8e-05
-8e-05
-9e-05
-9e-05
-9e-05
-9e-05
-9e-05
-9e-05
-9e-05
-9e-05
-9e-05
-0.0001
-0.0001
-0.0001
-0.0001
-0.0001
-0.0001
-0.0001
-0.0001
-0.0001
-0.0001
-0.0001
-0.0001
-0.0001
-0.0001
-0.0001
-0.0001
-0.0001
-0.0001
-0.0001
-0.0001
-0.0001
-0.0001
-0.0001
-0.0001
-0.0001
-0.0001
-0.0001
-0.0001
-0.0001
-0.0001
-0.0001
-0.0001
-0.0001
-0.0001
-0.0001
-0.0001
-0.0001
-0.0001
-0.0001
-0.0001
-0.0001
-0.0001
-0.0001
-0.0001
-0.0001
-0.0001
-0.0001
-0.0001
-0.0001
-0.0001
-0.0001
-0.0001
-0.0001
-0.0001
-0.0001
-0.0001
-0.0001
-0.0001
-0.0001
-0.0001
-0.0001
-0.0001
-0.0001
-0.0001
-0.0001
-0.0001
-0.0001
-0.0001
-0.0001
-0.0001
-0.0001
-0.0001
-0.0001
-0.0001
-0.0001
-0.0001
-0.0001
-0.0001
-0.0001
-0.0001
-0.0001
-0.0001
-0.0001
-0.0001
-0.0001
-0.0001
-0.0001
-0.0001
-0.0001
-0.0001
-0.0002
-0.0002
-0.0002
-0.0002
-0.0002
-0.0002
-0.0002
-0.0002
-0.0002
-0.0002
-0.0002
-0.0002
-0.0002
-0.0002
-0.0002
-0.0002
-0.0002
-0.0002
-0.0002
-0.0002
-0.0002
-0.0002
-0.0002
-0.0002
-0.0002
-0.0002
-0.0002
-0.0002
-0.0002
-0.0002
-0.0002
-0.0002
-0.0002
-0.0002
-0.0002
-0.0002
-0.0002
-0.0002
-0.0002
-0.0002
-0.0002
-0.0002
-0.0002
-0.0002
-0.0002
-0.0002
-0.0002
-0.0002
-0.0002
-0.0002
-0.0002
-0.0002
-0.0002
-0.0002
-0.0002
-0.0002
-0.0002
-0.0002
-0.0002
-0.0002
-0.0002
-0.0002
-0.0002
-0.0002
-0.0002
-0.0002
-0.0002
-0.0002
-0.0002
-0.0002
-0.0002
-0.0002
-0.0002
-0.0002
-0.0002
-0.0002
-0.0002
-0.0002
-0.0002
-0.0002
-0.0002
-0.0002
-0.0002
-0.0002
-0.0002
-0.0002
-0.0002
-0.0002
-0.0002
-0.0002
-0.0002
-0.0002
-0.0002
-0.0002
-0.0002
-0.0002
-0.0002
-0.0002
-0.0002
-0.0002
-0.0002
-0.0002
-0.0002
-0.0002
-0.0002
-0.0002
-0.0002
-0.0002
-0.0002
-0.0002
-0.0002
-0.0002
-0.0002
-0.0002
-0.0002
-0.0002
-0.0002
-0.0002
-0.0002
-0.0002
-0.0002
-0.0002
-0.0002
-0.0002
-0.0002
-0.0002
-0.0002
-0.0002
-0.0002
-0.0002
-0.0002
-0.0002
-0.0002
-0.0002
-0.0002
-0.0002
-0.0002
-0.0002
-0.0002
-0.0002
-0.0002
-0.0002
-0.0002
-0.0002
-0.0002
-0.0002
-0.0002
-0.0002
-0.0002
-0.0002
-0.0002
-0.0002
-0.0002
-0.0002
-0.0002
-0.0002
-0.0002
-0.0002
-0.0002
-0.0002
-0.0002
-0.0002
-0.0003
-0.0003
-0.0003
-0.0003
-0.0003
-0.0003
-0.0003
-0.0003
-0.0003
-0.0003
-0.0003
-0.0003
-0.0003
-0.0003
-0.0003
-0.0003
-0.0003
-0.0003
-0.0003
-0.0003
-0.0003
-0.0003
-0.0003
-0.0003
-0.0003
-0.0003
-0.0003
-0.0003
-0.0003
-0.0003
-0.0003
-0.0003
-0.0003
-0.0003
-0.0003
-0.0003
-0.0003
-0.0003
-0.0003
-0.0003
-0.0003
-0.0003
-0.0003
-0.0003
-0.0003
-0.0003
-0.0003
-0.0003
-0.0003
-0.0003
-0.0003
-0.0003
-0.0003
-0.0003
-0.0003
-0.0003
-0.0003
-0.0003
-0.0003
-0.0003
-0.0003
-0.0003
-0.0003
-0.0003
-0.0003
-0.0003
-0.0003
-0.0003
-0.0003
-0.0003
-0.0003
-0.0003
-0.0003
-0.0003
-0.0003
-0.0003
-0.0003
-0.0003
-0.0003
-0.0003
-0.0003
-0.0003
-0.0003
-0.0003
-0.0003
-0.0003
-0.0003
-0.0003
-0.0003
-0.0003
-0.0003
-0.0003
-0.0003
-0.0003
-0.0003
-0.0003
-0.0003
-0.0003
-0.0003
-0.0003
-0.0003
-0.0003
-0.0003
-0.0003
-0.0003
-0.0003
-0.0003
-0.0003
-0.0003
-0.0003
-0.0003
-0.0003
-0.0003
-0.0003
-0.0003
-0.0003
-0.0003
-0.0003
-0.0003
-0.0003
-0.0003
-0.0003
-0.0003
-0.0003
-0.0003
-0.0003
-0.0003
-0.0003
-0.0003
-0.0003
-0.0003
-0.0003
-0.0003
-0.0003
-0.0003
-0.0003
-0.0003
-0.0003
-0.0003
-0.0003
-0.0003
-0.0003
-0.0003
-0.0003
-0.0003
-0.0003
-0.0003
-0.0003
-0.0003
-0.0003
-0.0003
-0.0003
-0.0003
-0.0003
-0.0003
-0.0003
-0.0003
-0.0003
-0.0003
-0.0003
-0.0003
-0.0003
-0.0004
-0.0004
-0.0004
-0.0004
-0.0004
-0.0004
-0.0004
-0.0004
-0.0004
-0.0004
-0.0004
-0.0004
-0.0004
-0.0004
-0.0004
-0.0004
-0.0004
-0.0004
-0.0004
-0.0004
-0.0004
-0.0004
-0.0004
-0.0004
-0.0004
-0.0004
-0.0004
-0.0004
-0.0004
-0.0004
-0.0004
-0.0004
-0.0004
-0.0004
-0.0004
-0.0004
-0.0004
-0.0004
-0.0004
-0.0004
-0.0004
-0.0004
-0.0004
-0.0004
-0.0004
-0.0004
-0.0004
-0.0004
-0.0004
-0.0004
-0.0004
-0.0004
-0.0004
-0.0004
-0.0004
-0.0004
-0.0004
-0.0004
-0.0004
-0.0004
-0.0004
-0.0004
-0.0004
-0.0004
-0.0004
-0.0004
-0.0004
-0.0004
-0.0004
-0.0004
-0.0004
-0.0004
-0.0004
-0.0004
-0.0004
-0.0004
-0.0004
-0.0004
-0.0004
-0.0004
-0.0004
-0.0004
-0.0004
-0.0004
-0.0004
-0.0004
-0.0004
-0.0004
-0.0004
-0.0004
-0.0004
-0.0004
-0.0004
-0.0004
-0.0004
-0.0004
-0.0004
-0.0004
-0.0004
-0.0004
-0.0004
-0.0004
-0.0004
-0.0004
-0.0004
-0.0004
-0.0004
-0.0004
-0.0004
-0.0004
-0.0004
-0.0004
-0.0004
-0.0004
-0.0004
-0.0004
-0.0004
-0.0004
-0.0004
-0.0004
-0.0004
-0.0004
-0.0004
-0.0004
-0.0004
-0.0004
-0.0004
-0.0004
-0.0004
-0.0004
-0.0004
-0.0004
-0.0004
-0.0004
-0.0004
-0.0004
-0.0004
-0.0004
-0.0004
-0.0004
-0.0004
-0.0004
-0.0004
-0.0004
-0.0004
-0.0004
-0.0004
-0.0004
-0.0004
-0.0004
-0.0004
-0.0004
-0.0004
SCALARS strain_1 float
LOOKUP_TABLE default
-0.000124
-0.196604
-0.193630
-0.190643
-0.187640
-0.184625
-0.181596
-0.178555
-0.175504
-0.172441
-0.169369
-0.166287
-0.163197
-0.160101
-0.156998
-0.153889
-0.150776
-0.147659
-0.144541
-0.141421
-0.138302
-0.135182
-0.132065
-0.128951
-0.125842
-0.122740
-0.119643
-0.116555
-0.113478
-0.110410
-0.107355
-0.104314
-0.101290
-0.098280
-0.095288
-0.092317
-0.089366
-0.086438
-0.083534
-0.080655
-0.077803
-0.074979
-0.072186
-0.069424
-0.066694
-0.064000
-0.061341
-0.058720
-0.056138
-0.053595
-0.051095
-0.048638
-0.046225
-0.043859
-0.041539
-0.039268
-0.037046
-0.034876
-0.032757
-0.030691
-0.028681
-0.026725
-0.024825
-0.022982
-0.021198
-0.019470
-0.017803
-0.016196
-0.014649
-0.013163
-0.011739
-0.010375
-0.009073
-0.007833
-0.006656
-0.005539
-0.004485
-0.003491
-0.002558
-0.001687
-0.000875
-0.196778
-0.000004
-0.000759
-0.001573
-0.002447
-0.003381
-0.004378
-0.005434
-0.006554
-0.007735
-0.008978
-0.010283
-0.011649
-0.013078
-0.014567
-0.016119
-0.017730
-0.019400
-0.021130
-0.022920
-0.024767
-0.026671
-0.028630
-0.030646
-0.032716
-0.034838
-0.037014
-0.039239
-0.041515
-0.043839
-0.046210
-0.048628
-0.051089
-0.053594
-0.056141
-0.058728
-0.061354
-0.064017
-0.066717
-0.069450
-0.072217
-0.075015
-0.077843
-0.080700
-0.083583
-0.086491
-0.089424
-0.092379
-0.095355
-0.098351
-0.101364
-0.104394
-0.107439
-0.110498
-0.113569
-0.116651
-0.119743
-0.122843
-0.125949
-0.129062
-0.132180
-0.135300
-0.138422
-0.141546
-0.144669
-0.147792
-0.150910
-0.154027
-0.157138
-0.160245
-0.163345
-0.166437
-0.169521
-0.172597
-0.175662
-0.178716
-0.181759
-0.184790
-0.187809
-0.190812
-0.193803
-0.196762
-0.196745
-0.196729
-0.196711
-0.196694
-0.196677
-0.196659
-0.196640
-0.196622
-0.000100
-0.000079
-0.000060
-0.000045
-0.000032
-0.000021
-0.000014
-0.000008
-0.000005
-0.000759
-0.000762
-0.000767
-0.000774
-0.000785
-0.000798
-0.000813
-0.000832
-0.000851
-0.001572
-0.001575
-0.001580
-0.001587
-0.001598
-0.001609
-0.001625
-0.001643
-0.001665
-0.002446
-0.002448
-0.002453
-0.002460
-0.002469
-0.002482
-0.002498
-0.002516
-0.002536
-0.003381
-0.003382
-0.003387
-0.003393
-0.003403
-0.003415
-0.003431
-0.003448
-0.003468
-0.004376
-0.004378
-0.004382
-0.004388
-0.004397
-0.004410
-0.004425
-0.004441
-0.004462
-0.005434
-0.005434
-0.005439
-0.005445
-0.005454
-0.005465
-0.005480
-0.005497
-0.005517
-0.006552
-0.006553
-0.006557
-0.006563
-0.006572
-0.006583
-0.006597
-0.006614
-0.006633
-0.007733
-0.007733
-0.007737
-0.007743
-0.007751
-0.007762
-0.007776
-0.007793
-0.007811
-0.008976
-0.008976
-0.008978
-0.008984
-0.008993
-0.009003
-0.009017
-0.009033
-0.009052
-0.010280
-0.010280
-0.010283
-0.010288
-0.010296
-0.010307
-0.010319
-0.010336
-0.010354
-0.011647
-0.011646
-0.011649
-0.011653
-0.011661
-0.011671
-0.011684
-0.011699
-0.011717
-0.013074
-0.013074
-0.013076
-0.013080
-0.013087
-0.013098
-0.013111
-0.013125
-0.013143
-0.014564
-0.014563
-0.014565
-0.014569
-0.014575
-0.014585
-0.014597
-0.014612
-0.014629
-0.016114
-0.016113
-0.016114
-0.016118
-0.016125
-0.016134
-0.016145
-0.016160
-0.016177
-0.017725
-0.017724
-0.017724
-0.017728
-0.017734
-0.017743
-0.017754
-0.017768
-0.017785
-0.019395
-0.019394
-0.019394
-0.019397
-0.019404
-0.019411
-0.019422
-0.019437
-0.019453
-0.021126
-0.021124
-0.021124
-0.021126
-0.021132
-0.021140
-0.021150
-0.021164
-0.021179
-0.022914
-0.022912
-0.022912
-0.022914
-0.022919
-0.022927
-0.022937
-0.022949
-0.022965
-0.024761
-0.024758
-0.024758
-0.024760
-0.024764
-0.024771
-0.024781
-0.024793
-0.024808
-0.026665
-0.026661
-0.026661
-0.026662
-0.026666
-0.026673
-0.026683
-0.026694
-0.026708
-0.028625
-0.028621
-0.028620
-0.028621
-0.028625
-0.028631
-0.028640
-0.028651
-0.028665
-0.030640
-0.030635
-0.030634
-0.030635
-0.030638
-0.030644
-0.030653
-0.030663
-0.030676
-0.032709
-0.032705
-0.032703
-0.032703
-0.032706
-0.032711
-0.032719
-0.032730
-0.032742
-0.034831
-0.034827
-0.034824
-0.034825
-0.034828
-0.034832
-0.034839
-0.034849
-0.034861
-0.037006
-0.037001
-0.036999
-0.036998
-0.037001
-0.037005
-0.037012
-0.037021
-0.037033
-0.039232
-0.039226
-0.039224
-0.039223
-0.039224
-0.039229
-0.039235
-0.039244
-0.039254
-0.041507
-0.041502
-0.041498
-0.041497
-0.041499
-0.041502
-0.041508
-0.041516
-0.041527
-0.043831
-0.043825
-0.043822
-0.043820
-0.043821
-0.043824
-0.043829
-0.043837
-0.043847
-0.046203
-0.046196
-0.046192
-0.046190
-0.046190
-0.046193
-0.046198
-0.046204
-0.046214
-0.048618
-0.048613
-0.048608
-0.048606
-0.048606
-0.048608
-0.048612
-0.048618
-0.048627
-0.051081
-0.051073
-0.051069
-0.051067
-0.051066
-0.051067
-0.051072
-0.051077
-0.051085
-0.053585
-0.053578
-0.053573
-0.053570
-0.053569
-0.053570
-0.053574
-0.053579
-0.053587
-0.056132
-0.056124
-0.056118
-0.056115
-0.056114
-0.056115
-0.056117
-0.056122
-0.056129
-0.058719
-0.058711
-0.058706
-0.058701
-0.058699
-0.058700
-0.058701
-0.058705
-0.058712
-0.061344
-0.061336
-0.061330
-0.061325
-0.061324
-0.061323
-0.061325
-0.061328
-0.061334
-0.064007
-0.063998
-0.063992
-0.063988
-0.063985
-0.063985
-0.063985
-0.063989
-0.063993
-0.066706
-0.066698
-0.066691
-0.066686
-0.066683
-0.066681
-0.066681
-0.066684
-0.066689
-0.069439
-0.069431
-0.069424
-0.069418
-0.069415
-0.069413
-0.069413
-0.069415
-0.069419
-0.072206
-0.072197
-0.072189
-0.072184
-0.072180
-0.072178
-0.072177
-0.072178
-0.072182
-0.075004
-0.074994
-0.074987
-0.074981
-0.074977
-0.074974
-0.074973
-0.074973
-0.074976
-0.077832
-0.077822
-0.077814
-0.077807
-0.077802
-0.077800
-0.077797
-0.077798
-0.077800
-0.080687
-0.080677
-0.080670
-0.080662
-0.080657
-0.080654
-0.080652
-0.080651
-0.080652
-0.083571
-0.083561
-0.083552
-0.083545
-0.083539
-0.083535
-0.083532
-0.083532
-0.083532
-0.086479
-0.086469
-0.086460
-0.086452
-0.086447
-0.086441
-0.086438
-0.086437
-0.086437
-0.089412
-0.089401
-0.089392
-0.089383
-0.089377
-0.089372
-0.089369
-0.089366
-0.089365
-0.092366
-0.092356
-0.092346
-0.092338
-0.092331
-0.092325
-0.092321
-0.092318
-0.092317
-0.095342
-0.095331
-0.095321
-0.095313
-0.095305
-0.095299
-0.095294
-0.095291
-0.095289
-0.098337
-0.098327
-0.098316
-0.098306
-0.098299
-0.098293
-0.098287
-0.098284
-0.098281
-0.101351
-0.101339
-0.101329
-0.101319
-0.101311
-0.101304
-0.101299
-0.101294
-0.101291
-0.104381
-0.104369
-0.104358
-0.104348
-0.104340
-0.104332
-0.104326
-0.104321
-0.104318
-0.107425
-0.107414
-0.107402
-0.107392
-0.107383
-0.107376
-0.107369
-0.107363
-0.107359
-0.110484
-0.110472
-0.110461
-0.110450
-0.110441
-0.110432
-0.110425
-0.110419
-0.110414
-0.113555
-0.113542
-0.113531
-0.113521
-0.113510
-0.113502
-0.113495
-0.113488
-0.113482
-0.116638
-0.116624
-0.116613
-0.116601
-0.116591
-0.116582
-0.116574
-0.116567
-0.116560
-0.119729
-0.119715
-0.119703
-0.119692
-0.119681
-0.119672
-0.119664
-0.119655
-0.119649
-0.122828
-0.122815
-0.122803
-0.122791
-0.122780
-0.122770
-0.122762
-0.122753
-0.122746
-0.125935
-0.125922
-0.125909
-0.125897
-0.125886
-0.125875
-0.125867
-0.125857
-0.125850
-0.129048
-0.129033
-0.129021
-0.129009
-0.128997
-0.128987
-0.128977
-0.128968
-0.128960
-0.132165
-0.132151
-0.132139
-0.132126
-0.132114
-0.132102
-0.132092
-0.132083
-0.132073
-0.135285
-0.135271
-0.135258
-0.135246
-0.135233
-0.135222