# vtk DataFile Version 2.0
Generated volume Mesh
ASCII
DATASET UNSTRUCTURED_GRID
POINTS 891 float
0.005000 0.100000 0.000000
0.005000 0.000000 0.000000
0.005000 0.001250 0.000000
0.005000 0.002500 0.000000
0.005000 0.003750 0.000000
0.005000 0.005000 0.000000
0.005000 0.006250 0.000000
0.005000 0.007500 0.000000
0.005000 0.008750 0.000000
0.005000 0.010000 0.000000
0.005000 0.011250 0.000000
0.005000 0.012500 0.000000
0.005000 0.013750 0.000000
0.005000 0.015000 0.000000
0.005000 0.016250 0.000000
0.005000 0.017500 0.000000
0.005000 0.018750 0.000000
0.005000 0.020000 0.000000
0.005000 0.021250 0.000000
0.005000 0.022500 0.000000
0.005000 0.023750 0.000000
0.005000 0.025000 0.000000
0.005000 0.026250 0.000000
0.005000 0.027500 0.000000
0.005000 0.028750 0.000000
0.005000 0.030000 0.000000
0.005000 0.031250 0.000000
0.005000 0.032500 0.000000
0.005000 0.033750 0.000000
0.005000 0.035000 0.000000
0.005000 0.036250 0.000000
0.005000 0.037500 0.000000
0.005000 0.038750 0.000000
0.005000 0.040000 0.000000
0.005000 0.041250 0.000000
0.005000 0.042500 0.000000
0.005000 0.043750 0.000000
0.005000 0.045000 0.000000
0.005000 0.046250 0.000000
0.005000 0.047500 0.000000
0.005000 0.048750 0.000000
0.005000 0.050000 0.000000
0.005000 0.051250 0.000000
0.005000 0.052500 0.000000
0.005000 0.053750 0.000000
0.005000 0.055000 0.000000
0.005000 0.056250 0.000000
0.005000 0.057500 0.000000
0.005000 0.058750 0.000000
0.005000 0.060000 0.000000
0.005000 0.061250 0.000000
0.005000 0.062500 0.000000
0.005000 0.063750 0.000000
0.005000 0.065000 0.000000
0.005000 0.066250 0.000000
0.005000 0.067500 0.000000
0.005000 0.068750 0.000000
0.005000 0.070000 0.000000
0.005000 0.071250 0.000000
0.005000 0.072500 0.000000
0.005000 0.073750 0.000000
0.005000 0.075000 0.000000
0.005000 0.076250 0.000000
0.005000 0.077500 0.000000
0.005000 0.078750 0.000000
0.005000 0.080000 0.000000
0.005000 0.081250 0.000000
0.005000 0.082500 0.000000
0.005000 0.083750 0.000000
0.005000 0.085000 0.000000
0.005000 0.086250 0.000000
0.005000 0.087500 0.000000
0.005000 0.088750 0.000000
0.005000 0.090000 0.000000
0.005000 0.091250 0.000000
0.005000 0.092500 0.000000
0.005000 0.093750 0.000000
0.005000 0.095000 0.000000
0.005000 0.096250 0.000000
0.005000 0.097500 0.000000
0.005000 0.098750 0.000000
0.000000 0.000000 0.000000
0.000000 0.100000 0.000000
0.000000 0.098750 0.000000
0.000000 0.097500 0.000000
0.000000 0.096250 0.000000
0.000000 0.095000 0.000000
0.000000 0.093750 0.000000
0.000000 0.092500 0.000000
0.000000 0.091250 0.000000
0.000000 0.090000 0.000000
0.000000 0.088750 0.000000
0.000000 0.087500 0.000000
0.000000 0.086250 0.000000
0.000000 0.085000 0.000000
0.000000 0.083750 0.000000
0.000000 0.082500 0.000000
0.000000 0.081250 0.000000
0.000000 0.080000 0.000000
0.000000 0.078750 0.000000
0.000000 0.077500 0.000000
0.000000 0.076250 0.000000
0.000000 0.075000 0.000000
0.000000 0.073750 0.000000
0.000000 0.072500 0.000000
0.000000 0.071250 0.000000
0.000000 0.070000 0.000000
0.000000 0.068750 0.000000
0.000000 0.067500 0.000000
0.000000 0.066250 0.000000
0.000000 0.065000 0.000000
0.000000 0.063750 0.000000
0.000000 0.062500 0.000000
0.000000 0.061250 0.000000
0.000000 0.060000 0.000000
0.000000 0.058750 0.000000
0.000000 0.057500 0.000000
0.000000 0.056250 0.000000
0.000000 0.055000 0.000000
0.000000 0.053750 0.000000
0.000000 0.052500 0.000000
0.000000 0.051250 0.000000
0.000000 0.050000 0.000000
0.000000 0.048750 0.000000
0.000000 0.047500 0.000000
0.000000 0.046250 0.000000
0.000000 0.045000 0.000000
0.000000 0.043750 0.000000
0.000000 0.042500 0.000000
0.000000 0.041250 0.000000
0.000000 0.040000 0.000000
0.000000 0.038750 0.000000
0.000000 0.037500 0.000000
0.000000 0.036250 0.000000
0.000000 0.035000 0.000000
0.000000 0.033750 0.000000
0.000000 0.032500 0.000000
0.000000 0.031250 0.000000
0.000000 0.030000 0.000000
0.000000 0.028750 0.000000
0.000000 0.027500 0.000000
0.000000 0.026250 0.000000
0.000000 0.025000 0.000000
0.000000 0.023750 0.000000
0.000000 0.022500 0.000000
0.000000 0.021250 0.000000
0.000000 0.020000 0.000000
0.000000 0.018750 0.000000
0.000000 0.017500 0.000000
0.000000 0.016250 0.000000
0.000000 0.015000 0.000000
0.000000 0.013750 0.000000
0.000000 0.012500 0.000000
0.000000 0.011250 0.000000
0.000000 0.010000 0.000000
0.000000 0.008750 0.000000
0.000000 0.007500 0.000000
0.000000 0.006250 0.000000
0.000000 0.005000 0.000000
0.000000 0.003750 0.000000
0.000000 0.002500 0.000000
0.000000 0.001250 0.000000
0.000500 0.000000 0.000000
0.001000 0.000000 0.000000
0.001500 0.000000 0.000000
0.002000 0.000000 0.000000
0.002500 0.000000 0.000000
0.003000 0.000000 0.000000
0.003500 0.000000 0.000000
0.004000 0.000000 0.000000
0.004500 0.000000 0.000000
0.004500 0.100000 0.000000
0.004000 0.100000 0.000000
0.003500 0.100000 0.000000
0.003000 0.100000 0.000000
0.002500 0.100000 0.000000
0.002000 0.100000 0.000000
0.001500 0.100000 0.000000
0.001000 0.100000 0.000000
0.000500 0.100000 0.000000
0.000500 0.098750 0.000000
0.001000 0.098750 0.000000
0.001500 0.098750 0.000000
0.002000 0.098750 0.000000
0.002500 0.098750 0.000000
0.003000 0.098750 0.000000
0.003500 0.098750 0.000000
0.004000 0.098750 0.000000
0.004500 0.098750 0.000000
0.000500 0.097500 0.000000
0.001000 0.097500 0.000000
0.001500 0.097500 0.000000
0.002000 0.097500 0.000000
0.002500 0.097500 0.000000
0.003000 0.097500 0.000000
0.003500 0.097500 0.000000
0.004000 0.097500 0.000000
0.004500 0.097500 0.000000
0.000500 0.096250 0.000000
0.001000 0.096250 0.000000
0.001500 0.096250 0.000000
0.002000 0.096250 0.000000
0.002500 0.096250 0.000000
0.003000 0.096250 0.000000
0.003500 0.096250 0.000000
0.004000 0.096250 0.000000
0.004500 0.096250 0.000000
0.000500 0.095000 0.000000
0.001000 0.095000 0.000000
0.001500 0.095000 0.000000
0.002000 0.095000 0.000000
0.002500 0.095000 0.000000
0.003000 0.095000 0.000000
0.003500 0.095000 0.000000
0.004000 0.095000 0.000000
0.004500 0.095000 0.000000
0.000500 0.093750 0.000000
0.001000 0.093750 0.000000
0.001500 0.093750 0.000000
0.002000 0.093750 0.000000
0.002500 0.093750 0.000000
0.003000 0.093750 0.000000
0.003500 0.093750 0.000000
0.004000 0.093750 0.000000
0.004500 0.093750 0.000000
0.000500 0.092500 0.000000
0.001000 0.092500 0.000000
0.001500 0.092500 0.000000
0.002000 0.092500 0.000000
0.002500 0.092500 0.000000
0.003000 0.092500 0.000000
0.003500 0.092500 0.000000
0.004000 0.092500 0.000000
0.004500 0.092500 0.000000
0.000500 0.091250 0.000000
0.001000 0.091250 0.000000
0.001500 0.091250 0.000000
0.002000 0.091250 0.000000
0.002500 0.091250 0.000000
0.003000 0.091250 0.000000
0.003500 0.091250 0.000000
0.004000 0.091250 0.000000
0.004500 0.091250 0.000000
0.000500 0.090000 0.000000
0.001000 0.090000 0.000000
0.001500 0.090000 0.000000
0.002000 0.090000 0.000000
0.002500 0.090000 0.000000
0.003000 0.090000 0.000000
0.003500 0.090000 0.000000
0.004000 0.090000 0.000000
0.004500 0.090000 0.000000
0.000500 0.088750 0.000000
0.001000 0.088750 0.000000
0.001500 0.088750 0.000000
0.002000 0.088750 0.000000
0.002500 0.088750 0.000000
0.003000 0.088750 0.000000
0.003500 0.088750 0.000000
0.004000 0.088750 0.000000
0.004500 0.088750 0.000000
0.000500 0.087500 0.000000
0.001000 0.087500 0.000000
0.001500 0.087500 0.000000
0.002000 0.087500 0.000000
0.002500 0.087500 0.000000
0.003000 0.087500 0.000000
0.003500 0.087500 0.000000
0.004000 0.087500 0.000000
0.004500 0.087500 0.000000
0.000500 0.086250 0.000000
0.001000 0.086250 0.000000
0.001500 0.086250 0.000000
0.002000 0.086250 0.000000
0.002500 0.086250 0.000000
0.003000 0.086250 0.000000
0.003500 0.086250 0.000000
0.004000 0.086250 0.000000
0.004500 0.086250 0.000000
0.000500 0.085000 0.000000
0.001000 0.085000 0.000000
0.001500 0.085000 0.000000
0.002000 0.085000 0.000000
0.002500 0.085000 0.000000
0.003000 0.085000 0.000000
0.003500 0.085000 0.000000
0.004000 0.085000 0.000000
0.004500 0.085000 0.000000
0.000500 0.083750 0.000000
0.001000 0.083750 0.000000
0.001500 0.083750 0.000000
0.002000 0.083750 0.000000
0.002500 0.083750 0.000000
0.003000 0.083750 0.000000
0.003500 0.083750 0.000000
0.004000 0.083750 0.000000
0.004500 0.083750 0.000000
0.000500 0.082500 0.000000
0.001000 0.082500 0.000000
0.001500 0.082500 0.000000
0.002000 0.082500 0.000000
0.002500 0.082500 0.000000
0.003000 0.082500 0.000000
0.003500 0.082500 0.000000
0.004000 0.082500 0.000000
0.004500 0.082500 0.000000
0.000500 0.081250 0.000000
0.001000 0.081250 0.000000
0.001500 0.081250 0.000000
0.002000 0.081250 0.000000
0.002500 0.081250 0.000000
0.003000 0.081250 0.000000
0.003500 0.081250 0.000000
0.004000 0.081250 0.000000
0.004500 0.081250 0.000000
0.000500 0.080000 0.000000
0.001000 0.080000 0.000000
0.001500 0.080000 0.000000
0.002000 0.080000 0.000000
0.002500 0.080000 0.000000
0.003000 0.080000 0.000000
0.003500 0.080000 0.000000
0.004000 0.080000 0.000000
0.004500 0.080000 0.000000
0.000500 0.078750 0.000000
0.001000 0.078750 0.000000
0.001500 0.078750 0.000000
0.002000 0.078750 0.000000
0.002500 0.078750 0.000000
0.003000 0.078750 0.000000
0.003500 0.078750 0.000000
0.004000 0.078750 0.000000
0.004500 0.078750 0.000000
0.000500 0.077500 0.000000
0.001000 0.077500 0.000000
0.001500 0.077500 0.000000
0.002000 0.077500 0.000000
0.002500 0.077500 0.000000
0.003000 0.077500 0.000000
0.003500 0.077500 0.000000
0.004000 0.077500 0.000000
0.004500 0.077500 0.000000
0.000500 0.076250 0.000000
0.001000 0.076250 0.000000
0.001500 0.076250 0.000000
0.002000 0.076250 0.000000
0.002500 0.076250 0.000000
0.003000 0.076250 0.000000
0.003500 0.076250 0.000000
0.004000 0.076250 0.000000
0.004500 0.076250 0.000000
0.000500 0.075000 0.000000
0.001000 0.075000 0.000000
0.001500 0.075000 0.000000
0.002000 0.075000 0.000000
0.002500 0.075000 0.000000
0.003000 0.075000 0.000000
0.003500 0.075000 0.000000
0.004000 0.075000 0.000000
0.004500 0.075000 0.000000
0.000500 0.073750 0.000000
0.001000 0.073750 0.000000
0.001500 0.073750 0.000000
0.002000 0.073750 0.000000
0.002500 0.073750 0.000000
0.003000 0.073750 0.000000
[...]
POINT_DATA 891
SCALARS u1 float
LOOKUP_TABLE default
4e-18
-7e-07
-7e-07
-7e-07
-7e-07
-7e-07
-7e-07
-7e-07
-7e-07
-7e-07
-7e-07
-7e-07
-7e-07
-7e-07
-7e-07
-7e-07
-7e-07
-7e-07
-7e-07
-7e-07
-7e-07
-7e-07
-7e-07
-7e-07
-7e-07
-7e-07
-7e-07
-7e-07
-7e-07
-7e-07
-7e-07
-7e-07
-7e-07
-7e-07
-7e-07
-7e-07
-7e-07
-7e-07
-7e-07
-7e-07
-7e-07
-7e-07
-7e-07
-7e-07
-7e-07
-7e-07
-7e-07
-7e-07
-7e-07
-7e-07
-7e-07
-7e-07
-7e-07
-7e-07
-7e-07
-7e-07
-7e-07
-7e-07
-7e-07
-7e-07
-7e-07
-7e-07
-7e-07
-7e-07
-7e-07
-7e-07
-7e-07
-7e-07
-7e-07
-7e-07
-7e-07
-7e-07
-7e-07
-7e-07
-7e-07
-7e-07
-7e-07
-7e-07
-7e-07
-7e-07
-6e-07
7e-07
-3e-18
6e-07
7e-07
7e-07
7e-07
7e-07
7e-07
7e-07
7e-07
7e-07
7e-07
7e-07
7e-07
7e-07
7e-07
7e-07
7e-07
7e-07
7e-07
7e-07
7e-07
7e-07
7e-07
7e-07
7e-07
7e-07
7e-07
7e-07
7e-07
7e-07
7e-07
7e-07
7e-07
7e-07
7e-07
7e-07
7e-07
7e-07
7e-07
7e-07
7e-07
7e-07
7e-07
7e-07
7e-07
7e-07
7e-07
7e-07
7e-07
7e-07
7e-07
7e-07
7e-07
7e-07
7e-07
7e-07
7e-07
7e-07
7e-07
7e-07
7e-07
7e-07
7e-07
7e-07
7e-07
7e-07
7e-07
7e-07
7e-07
7e-07
7e-07
7e-07
7e-07
7e-07
7e-07
7e-07
7e-07
7e-07
7e-07
7e-07
6e-07
4e-07
3e-07
1e-07
-2e-14
-1e-07
-3e-07
-4e-07
-6e-07
-3e-19
-2e-18
1e-18
-1e-17
-5e-18
5e-18
1e-18
1e-17
3e-18
4e-07
3e-07
2e-07
9e-08
-1e-14
-9e-08
-2e-07
-3e-07
-4e-07
6e-07
4e-07
3e-07
1e-07
-9e-15
-1e-07
-3e-07
-4e-07
-6e-07
6e-07
4e-07
3e-07
1e-07
-1e-14
-1e-07
-3e-07
-4e-07
-6e-07
6e-07
4e-07
3e-07
1e-07
-1e-14
-1e-07
-3e-07
-4e-07
-6e-07
6e-07
4e-07
3e-07
1e-07
-1e-14
-1e-07
-3e-07
-4e-07
-6e-07
6e-07
4e-07
3e-07
1e-07
-2e-14
-1e-07
-3e-07
-4e-07
-6e-07
6e-07
4e-07
3e-07
1e-07
-2e-14
-1e-07
-3e-07
-4e-07
-6e-07
6e-07
4e-07
3e-07
1e-07
-2e-14
-1e-07
-3e-07
-4e-07
-6e-07
6e-07
4e-07
3e-07
1e-07
-2e-14
-1e-07
-3e-07
-4e-07
-6e-07
6e-07
4e-07
3e-07
1e-07
-2e-14
-1e-07
-3e-07
-4e-07
-6e-07
6e-07
4e-07
3e-07
1e-07
-2e-14
-1e-07
-3e-07
-4e-07
-6e-07
6e-07
4e-07
3e-07
1e-07
-2e-14
-1e-07
-3e-07
-4e-07
-6e-07
6e-07
4e-07
3e-07
1e-07
-2e-14
-1e-07
-3e-07
-4e-07
-6e-07
6e-07
4e-07
3e-07
1e-07
-2e-14
-1e-07
-3e-07
-4e-07
-6e-07
6e-07
4e-07
3e-07
1e-07
-2e-14
-1e-07
-3e-07
-4e-07
-6e-07
6e-07
4e-07
3e-07
1e-07
-2e-14
-1e-07
-3e-07
-4e-07
-6e-07
6e-07
4e-07
3e-07
1e-07
-2e-14
-1e-07
-3e-07
-4e-07
-6e-07
6e-07
4e-07
3e-07
1e-07
-2e-14
-1e-07
-3e-07
-4e-07
-6e-07
6e-07
4e-07
3e-07
1e-07
-2e-14
-1e-07
-3e-07
-4e-07
-6e-07
6e-07
4e-07
3e-07
1e-07
-2e-14
-1e-07
-3e-07
-4e-07
-6e-07
6e-07
4e-07
3e-07
1e-07
-2e-14
-1e-07
-3e-07
-4e-07
-6e-07
6e-07
4e-07
3e-07
1e-07
-2e-14
-1e-07
-3e-07
-4e-07
-6e-07
6e-07
4e-07
3e-07
1e-07
-2e-14
-1e-07
-3e-07
-4e-07
-6e-07
6e-07
4e-07
3e-07
1e-07
-2e-14
-1e-07
-3e-07
-4e-07
-6e-07
6e-07
4e-07
3e-07
1e-07
-2e-14
-1e-07
-3e-07
-4e-07
-6e-07
6e-07
4e-07
3e-07
1e-07
-2e-14
-1e-07
-3e-07
-4e-07
-6e-07
6e-07
4e-07
3e-07
1e-07
-2e-14
-1e-07
-3e-07
-4e-07
-6e-07
6e-07
4e-07
3e-07
1e-07
-2e-14
-1e-07
-3e-07
-4e-07
-6e-07
6e-07
4e-07
3e-07
1e-07
-2e-14
-1e-07
-3e-07
-4e-07
-6e-07
6e-07
4e-07
3e-07
1e-07
-2e-14
-1e-07
-3e-07
-4e-07
-6e-07
6e-07
4e-07
3e-07
1e-07
-2e-14
-1e-07
-3e-07
-4e-07
-6e-07
6e-07
4e-07
3e-07
1e-07
-2e-14
-1e-07
-3e-07
-4e-07
-6e-07
6e-07
4e-07
3e-07
1e-07
-2e-14
-1e-07
-3e-07
-4e-07
-6e-07
6e-07
4e-07
3e-07
1e-07
-2e-14
-1e-07
-3e-07
-4e-07
-6e-07
6e-07
4e-07
3e-07
1e-07
-2e-14
-1e-07
-3e-07
-4e-07
-6e-07
6e-07
4e-07
3e-07
1e-07
-2e-14
-1e-07
-3e-07
-4e-07
-6e-07
6e-07
4e-07
3e-07
1e-07
-2e-14
-1e-07
-3e-07
-4e-07
-6e-07
6e-07
4e-07
3e-07
1e-07
-2e-14
-1e-07
-3e-07
-4e-07
-6e-07
6e-07
4e-07
3e-07
1e-07
-2e-14
-1e-07
-3e-07
-4e-07
-6e-07
6e-07
4e-07
3e-07
1e-07
-2e-14
-1e-07
-3e-07
-4e-07
-6e-07
6e-07
4e-07
3e-07
1e-07
-2e-14
-1e-07
-3e-07
-4e-07
-6e-07
6e-07
4e-07
3e-07
1e-07
-2e-14
-1e-07
-3e-07
-4e-07
-6e-07
6e-07
4e-07
3e-07
1e-07
-2e-14
-1e-07
-3e-07
-4e-07
-6e-07
6e-07
4e-07
3e-07
1e-07
-2e-14
-1e-07
-3e-07
-4e-07
-6e-07
6e-07
4e-07
3e-07
1e-07
-2e-14
-1e-07
-3e-07
-4e-07
-6e-07
6e-07
4e-07
3e-07
1e-07
-2e-14
-1e-07
-3e-07
-4e-07
-6e-07
6e-07
4e-07
3e-07
1e-07
-2e-14
-1e-07
-3e-07
-4e-07
-6e-07
6e-07
4e-07
3e-07
1e-07
-2e-14
-1e-07
-3e-07
-4e-07
-6e-07
6e-07
4e-07
3e-07
1e-07
-2e-14
-1e-07
-3e-07
-4e-07
-6e-07
6e-07
4e-07
3e-07
1e-07
-2e-14
-1e-07
-3e-07
-4e-07
-6e-07
6e-07
4e-07
3e-07
1e-07
-2e-14
-1e-07
-3e-07
-4e-07
-6e-07
6e-07
4e-07
3e-07
1e-07
-2e-14
-1e-07
-3e-07
-4e-07
-6e-07
6e-07
4e-07
3e-07
1e-07
-2e-14
-1e-07
-3e-07
-4e-07
-6e-07
6e-07
4e-07
3e-07
1e-07
-2e-14
-1e-07
-3e-07
-4e-07
-6e-07
6e-07
4e-07
3e-07
1e-07
-2e-14
-1e-07
-3e-07
-4e-07
-6e-07
6e-07
4e-07
3e-07
1e-07
-2e-14
-1e-07
-3e-07
-4e-07
-6e-07
6e-07
4e-07
3e-07
1e-07
-2e-14
-1e-07
-3e-07
-4e-07
-6e-07
6e-07
4e-07
3e-07
1e-07
-2e-14
-1e-07
-3e-07
-4e-07
-6e-07
6e-07
4e-07
3e-07
1e-07
-2e-14
-1e-07
-3e-07
-4e-07
-6e-07
6e-07
4e-07
3e-07
1e-07
-2e-14
-1e-07
-3e-07
-4e-07
-6e-07
6e-07
4e-07
3e-07
1e-07
-2e-14
-1e-07
-3e-07
-4e-07
-6e-07
6e-07
4e-07
3e-07
1e-07
-2e-14
-1e-07
-3e-07
-4e-07
-6e-07
6e-07
4e-07
3e-07
1e-07
-2e-14
-1e-07
-3e-07
-4e-07
-6e-07
6e-07
4e-07
3e-07
1e-07
-2e-14
-1e-07
-3e-07
-4e-07
-6e-07
6e-07
4e-07
3e-07
1e-07
-2e-14
-1e-07
-3e-07
-4e-07
-6e-07
6e-07
4e-07
3e-07
1e-07
-2e-14
-1e-07
-3e-07
-4e-07
-6e-07
6e-07
4e-07
3e-07
1e-07
-2e-14
-1e-07
-3e-07
-4e-07
-6e-07
6e-07
4e-07
3e-07
1e-07
-2e-14
-1e-07
-3e-07
-4e-07
-6e-07
6e-07
4e-07
3e-07
1e-07
-2e-14
-1e-07
-3e-07
-4e-07
-6e-07
6e-07
4e-07
3e-07
1e-07
-2e-14
-1e-07
-3e-07
-4e-07
-6e-07
6e-07
4e-07
3e-07
1e-07
-2e-14
-1e-07
-3e-07
-4e-07
-6e-07
6e-07
4e-07
3e-07
1e-07
-2e-14
-1e-07
-3e-07
-4e-07
-6e-07
6e-07
4e-07
3e-07
1e-07
-2e-14
-1e-07
-3e-07
-4e-07
-6e-07
6e-07
4e-07
3e-07
1e-07
-2e-14
-1e-07
-3e-07
-4e-07
-6e-07
6e-07
4e-07
3e-07
1e-07
-2e-14
-1e-07
-3e-07
-4e-07
-6e-07
6e-07
4e-07
3e-07
1e-07
-2e-14
-1e-07
-3e-07
-4e-07
-6e-07
6e-07
4e-07
3e-07
1e-07
-2e-14
-1e-07
-3e-07
-4e-07
-6e-07
6e-07
4e-07
3e-07
1e-07
-2e-14
-1e-07
-3e-07
-4e-07
-6e-07
6e-07
4e-07
3e-07
1e-07
-2e-14
-1e-07
-3e-07
-4e-07
-6e-07
SCALARS u2 float
LOOKUP_TABLE default
-7e-18
-0.0002
-0.0002
-0.0002
-0.0002
-0.0002
-0.0002
-0.0002
-0.0002
-0.0002
-0.0002
-0.0002
-0.0002
-0.0002
-0.0002
-0.0002
-0.0002
-0.0002
-0.0002
-0.0002
-0.0002
-0.0002
-0.0001
-0.0001
-0.0001
-0.0001
-0.0001
-0.0001
-0.0001
-0.0001
-0.0001
-0.0001
-0.0001
-0.0001
-0.0001
-0.0001
-0.0001
-0.0001
-0.0001
-0.0001
-0.0001
-0.0001
-0.0001
-0.0001
-9e-05
-9e-05
-9e-05
-9e-05
-8e-05
-8e-05
-8e-05
-8e-05
-7e-05
-7e-05
-7e-05
-7e-05
-6e-05
-6e-05
-6e-05
-6e-05
-5e-05
-5e-05
-5e-05
-5e-05
-4e-05
-4e-05
-4e-05
-4e-05
-3e-05
-3e-05
-3e-05
-3e-05
-2e-05
-2e-05
-2e-05
-2e-05
-1e-05
-1e-05
-8e-06
-5e-06
-3e-06
-0.0002
2e-17
-3e-06
-5e-06
-8e-06
-1e-05
-1e-05
-2e-05
-2e-05
-2e-05
-2e-05
-3e-05
-3e-05
-3e-05
-3e-05
-4e-05
-4e-05
-4e-05
-4e-05
-5e-05
-5e-05
-5e-05
-5e-05
-6e-05
-6e-05
-6e-05
-6e-05
-7e-05
-7e-05
-7e-05
-7e-05
-8e-05
-8e-05
-8e-05
-8e-05
-9e-05
-9e-05
-9e-05
-9e-05
-0.0001
-0.0001
-0.0001
-0.0001
-0.0001
-0.0001
-0.0001
-0.0001
-0.0001
-0.0001
-0.0001
-0.0001
-0.0001
-0.0001
-0.0001
-0.0001
-0.0001
-0.0001
-0.0001
-0.0001
-0.0001
-0.0001
-0.0002
-0.0002
-0.0002
-0.0002
-0.0002
-0.0002
-0.0002
-0.0002
-0.0002
-0.0002
-0.0002
-0.0002
-0.0002
-0.0002
-0.0002
-0.0002
-0.0002
-0.0002
-0.0002
-0.0002
-0.0002
-0.0002
-0.0002
-0.0002
-0.0002
-0.0002
-0.0002
-0.0002
-0.0002
-5e-17
5e-18
-2e-18
2e-17
2e-17
2e-17
5e-19
5e-18
1e-17
-3e-06
-2e-06
-2e-06
-2e-06
-2e-06
-2e-06
-2e-06
-2e-06
-3e-06
-5e-06
-5e-06
-5e-06
-5e-06
-5e-06
-5e-06
-5e-06
-5e-06
-5e-06
-8e-06
-8e-06
-8e-06
-8e-06
-8e-06
-8e-06
-8e-06
-8e-06
-8e-06
-1e-05
-1e-05
-1e-05
-1e-05
-1e-05
-1e-05
-1e-05
-1e-05
-1e-05
-1e-05
-1e-05
-1e-05
-1e-05
-1e-05
-1e-05
-1e-05
-1e-05
-1e-05
-2e-05
-2e-05
-2e-05
-2e-05
-2e-05
-2e-05
-2e-05
-2e-05
-2e-05
-2e-05
-2e-05
-2e-05
-2e-05
-2e-05
-2e-05
-2e-05
-2e-05
-2e-05
-2e-05
-2e-05
-2e-05
-2e-05
-2e-05
-2e-05
-2e-05
-2e-05
-2e-05
-2e-05
-2e-05
-2e-05
-2e-05
-2e-05
-2e-05
-2e-05
-2e-05
-2e-05
-3e-05
-3e-05
-3e-05
-3e-05
-3e-05
-3e-05
-3e-05
-3e-05
-3e-05
-3e-05
-3e-05
-3e-05
-3e-05
-3e-05
-3e-05
-3e-05
-3e-05
-3e-05
-3e-05
-3e-05
-3e-05
-3e-05
-3e-05
-3e-05
-3e-05
-3e-05
-3e-05
-3e-05
-3e-05
-3e-05
-3e-05
-3e-05
-3e-05
-3e-05
-3e-05
-3e-05
-4e-05
-4e-05
-4e-05
-4e-05
-4e-05
-4e-05
-4e-05
-4e-05
-4e-05
-4e-05
-4e-05
-4e-05
-4e-05
-4e-05
-4e-05
-4e-05
-4e-05
-4e-05
-4e-05
-4e-05
-4e-05
-4e-05
-4e-05
-4e-05
-4e-05
-4e-05
-4e-05
-4e-05
-4e-05
-4e-05
-4e-05
-4e-05
-4e-05
-4e-05
-4e-05
-4e-05
-5e-05
-5e-05
-5e-05
-5e-05
-5e-05
-5e-05
-5e-05
-5e-05
-5e-05
-5e-05
-5e-05
-5e-05
-5e-05
-5e-05
-5e-05
-5e-05
-5e-05
-5e-05
-5e-05
-5e-05
-5e-05
-5e-05
-5e-05
-5e-05
-5e-05
-5e-05
-5e-05
-5e-05
-5e-05
-5e-05
-5e-05
-5e-05
-5e-05
-5e-05
-5e-05
-5e-05
-6e-05
-6e-05
-6e-05
-6e-05
-6e-05
-6e-05
-6e-05
-6e-05
-6e-05
-6e-05
-6e-05
-6e-05
-6e-05
-6e-05
-6e-05
-6e-05
-6e-05
-6e-05
-6e-05
-6e-05
-6e-05
-6e-05
-6e-05
-6e-05
-6e-05
-6e-05
-6e-05
-6e-05
-6e-05
-6e-05
-6e-05
-6e-05
-6e-05
-6e-05
-6e-05
-6e-05
-7e-05
-7e-05
-7e-05
-7e-05
-7e-05
-7e-05
-7e-05
-7e-05
-7e-05
-7e-05
-7e-05
-7e-05
-7e-05
-7e-05
-7e-05
-7e-05
-7e-05
-7e-05
-7e-05
-7e-05
-7e-05
-7e-05
-7e-05
-7e-05
-7e-05
-7e-05
-7e-05
-7e-05
-7e-05
-7e-05
-7e-05
-7e-05
-7e-05
-7e-05
-7e-05
-7e-05
-8e-05
-8e-05
-8e-05
-8e-05
-8e-05
-8e-05
-8e-05
-8e-05
-8e-05
-8e-05
-8e-05
-8e-05
-8e-05
-8e-05
-8e-05
-8e-05
-8e-05
-8e-05
-8e-05
-8e-05
-8e-05
-8e-05
-8e-05
-8e-05
-8e-05
-8e-05
-8e-05
-8e-05
-8e-05
-8e-05
-8e-05
-8e-05
-8e-05
-8e-05
-8e-05
-8e-05
-9e-05
-9e-05
-9e-05
-9e-05
-9e-05
-9e-05
-9e-05
-9e-05
-9e-05
-9e-05
-9e-05
-9e-05
-9e-05
-9e-05
-9e-05
-9e-05
-9e-05
-9e-05
-9e-05
-9e-05
-9e-05
-9e-05
-9e-05
-9e-05
-9e-05
-9e-05
-9e-05
-9e-05
-9e-05
-9e-05
-9e-05
-9e-05
-9e-05
-9e-05
-9e-05
-9e-05
-0.0001
-0.0001
-0.0001
-0.0001
-0.0001
-0.0001
-0.0001
-0.0001
-0.0001
-0.0001
-0.0001
-0.0001
-0.0001
-0.0001
-0.0001
-0.0001
-0.0001
-0.0001
-0.0001
-0.0001
-0.0001
-0.0001
-0.0001
-0.0001
-0.0001
-0.0001
-0.0001
-0.0001
-0.0001
-0.0001
-0.0001
-0.0001
-0.0001
-0.0001
-0.0001
-0.0001
-0.0001
-0.0001
-0.0001
-0.0001
-0.0001
-0.0001
-0.0001
-0.0001
-0.0001
-0.0001
-0.0001
-0.0001
-0.0001
-0.0001
-0.0001
-0.0001
-0.0001
-0.0001
-0.0001
-0.0001
-0.0001
-0.0001
-0.0001
-0.0001
-0.0001
-0.0001
-0.0001
-0.0001
-0.0001
-0.0001
-0.0001
-0.0001
-0.0001
-0.0001
-0.0001
-0.0001
-0.0001
-0.0001
-0.0001
-0.0001
-0.0001
-0.0001
-0.0001
-0.0001
-0.0001
-0.0001
-0.0001
-0.0001
-0.0001
-0.0001
-0.0001
-0.0001
-0.0001
-0.0001
-0.0001
-0.0001
-0.0001
-0.0001
-0.0001
-0.0001
-0.0001
-0.0001
-0.0001
-0.0001
-0.0001
-0.0001
-0.0001
-0.0001
-0.0001
-0.0001
-0.0001
-0.0001
-0.0001
-0.0001
-0.0001
-0.0001
-0.0001
-0.0001
-0.0001
-0.0001
-0.0001
-0.0001
-0.0001
-0.0001
-0.0001
-0.0001
-0.0001
-0.0001
-0.0001
-0.0001
-0.0001
-0.0001
-0.0001
-0.0001
-0.0001
-0.0001
-0.0001
-0.0001
-0.0001
-0.0001
-0.0001
-0.0001
-0.0001
-0.0001
-0.0001
-0.0001
-0.0001
-0.0001
-0.0001
-0.0001
-0.0001
-0.0001
-0.0001
-0.0001
-0.0001
-0.0001
-0.0001
-0.0001
-0.0001
-0.0001
-0.0001
-0.0001
-0.0001
-0.0001
-0.0001
-0.0001
-0.0001
-0.0001
-0.0001
-0.0001
-0.0001
-0.0001
-0.0001
-0.0001
-0.0001
-0.0001
-0.0001
-0.0001
-0.0001
-0.0001
-0.0001
-0.0001
-0.0001
-0.0001
-0.0001
-0.0001
-0.0001
-0.0001
-0.0001
-0.0001
-0.0001
-0.0001
-0.0001
-0.0001
-0.0001
-0.0001
-0.0001
-0.0001
-0.0001
-0.0001
-0.0001
-0.0001
-0.0002
-0.0002
-0.0002
-0.0002
-0.0002
-0.0002
-0.0002
-0.0002
-0.0002
-0.0002
-0.0002
-0.0002
-0.0002
-0.0002
-0.0002
-0.0002
-0.0002
-0.0002
-0.0002
-0.0002
-0.0002
-0.0002
-0.0002
-0.0002
-0.0002
-0.0002
-0.0002
-0.0002
-0.0002
-0.0002
-0.0002
-0.0002
-0.0002
-0.0002
-0.0002
-0.0002
-0.0002
-0.0002
-0.0002
-0.0002
-0.0002
-0.0002
-0.0002
-0.0002
-0.0002
-0.0002
-0.0002
-0.0002
-0.0002
-0.0002
-0.0002
-0.0002
-0.0002
-0.0002
-0.0002
-0.0002
-0.0002
-0.0002
-0.0002
-0.0002
-0.0002
-0.0002
-0.0002
-0.0002
-0.0002
-0.0002
-0.0002
-0.0002
-0.0002
-0.0002
-0.0002
-0.0002
-0.0002
-0.0002
-0.0002
-0.0002
-0.0002
-0.0002
-0.0002
-0.0002
-0.0002
-0.0002
-0.0002
-0.0002
-0.0002
-0.0002
-0.0002
-0.0002
-0.0002
-0.0002
-0.0002
-0.0002
-0.0002
-0.0002
-0.0002
-0.0002
-0.0002
-0.0002
-0.0002
-0.0002
-0.0002
-0.0002
-0.0002
-0.0002
-0.0002
-0.0002
-0.0002
-0.0002
-0.0002
-0.0002
-0.0002
-0.0002
-0.0002
-0.0002
-0.0002
-0.0002
-0.0002
-0.0002
-0.0002
-0.0002
-0.0002
-0.0002
-0.0002
-0.0002
-0.0002
-0.0002
-0.0002
-0.0002
-0.0002
-0.0002
-0.0002
-0.0002
-0.0002
-0.0002
-0.0002
-0.0002
-0.0002
-0.0002
-0.0002
-0.0002
-0.0002
-0.0002
-0.0002
-0.0002
-0.0002
-0.0002
-0.0002
-0.0002
-0.0002
-0.0002
-0.0002
-0.0002
-0.0002
-0.0002
-0.0002
-0.0002
-0.0002
-0.0002
-0.0002
-0.0002
-0.0002
-0.0002
-0.0002
-0.0002
-0.0002
-0.0002
-0.0002
-0.0002
-0.0002
-0.0002
-0.0002
-0.0002
-0.0002
-0.0002
-0.0002
-0.0002
-0.0002
-0.0002
-0.0002
-0.0002
SCALARS strain_1 float
LOOKUP_TABLE default
-0.000053
-0.084142
-0.082869
-0.081590
-0.080305
-0.079014
-0.077718
-0.076417
-0.075111
-0.073800
-0.072485
-0.071166
-0.069844
-0.068519
-0.067190
-0.065860
-0.064527
-0.063194
-0.061859
-0.060523
-0.059188
-0.057853
-0.056519
-0.055187
-0.053856
-0.052528
-0.051203
-0.049881
-0.048564
-0.047251
-0.045944
-0.044642
-0.043347
-0.042060
-0.040779
-0.039507
-0.038245
-0.036991
-0.035748
-0.034516
-0.033296
-0.032087
-0.030892
-0.029710
-0.028542
-0.027389
-0.026251
-0.025129
-0.024024
-0.022936
-0.021865
-0.020814
-0.019781
-0.018768
-0.017776
-0.016804
-0.015853
-0.014924
-0.014017
-0.013134
-0.012273
-0.011436
-0.010623
-0.009834
-0.009071
-0.008332
-0.007618
-0.006930
-0.006268
-0.005632
-0.005023
-0.004439
-0.003882
-0.003352
-0.002847
-0.002370
-0.001919
-0.001494
-0.001095
-0.000722
-0.000374
-0.084216
-0.000002
-0.000325
-0.000673
-0.001047
-0.001447
-0.001873
-0.002326
-0.002804
-0.003310
-0.003842
-0.004400
-0.004985
-0.005596
-0.006234
-0.006897
-0.007586
-0.008302
-0.009042
-0.009808
-0.010598
-0.011413
-0.012252
-0.013114
-0.014000
-0.014908
-0.015839
-0.016792
-0.017765
-0.018760
-0.019775
-0.020809
-0.021863
-0.022935
-0.024025
-0.025132
-0.026256
-0.027396
-0.028551
-0.029721
-0.030905
-0.032103
-0.033313
-0.034535
-0.035770
-0.037014
-0.038269
-0.039534
-0.040808
-0.042090
-0.043379
-0.044676
-0.045979
-0.047289
-0.048603
-0.049922
-0.051245
-0.052572
-0.053902
-0.055234
-0.056568
-0.057904
-0.059240
-0.060577
-0.061914
-0.063250
-0.064585
-0.065919
-0.067250
-0.068580
-0.069907
-0.071230
-0.072550
-0.073866
-0.075179
-0.076486
-0.077788
-0.079086
-0.080377
-0.081663
-0.082943
-0.084209
-0.084202
-0.084195
-0.084187
-0.084180
-0.084173
-0.084165
-0.084157
-0.084149
-0.000043
-0.000034
-0.000026
-0.000019
-0.000013
-0.000009
-0.000006
-0.000003
-0.000002
-0.000325
-0.000326
-0.000328
-0.000331
-0.000336
-0.000341
-0.000348
-0.000356
-0.000365
-0.000672
-0.000674
-0.000676
-0.000679
-0.000683
-0.000689
-0.000695
-0.000703
-0.000712
-0.001047
-0.001047
-0.001049
-0.001052
-0.001057
-0.001062
-0.001069
-0.001076
-0.001085
-0.001446
-0.001447
-0.001449
-0.001452
-0.001456
-0.001461
-0.001468
-0.001475
-0.001484
-0.001873
-0.001873
-0.001875
-0.001878
-0.001882
-0.001887
-0.001893
-0.001900
-0.001909
-0.002325
-0.002325
-0.002327
-0.002330
-0.002333
-0.002339
-0.002345
-0.002352
-0.002360
-0.002804
-0.002804
-0.002805
-0.002808
-0.002812
-0.002817
-0.002823
-0.002830
-0.002838
-0.003309
-0.003309
-0.003310
-0.003313
-0.003316
-0.003321
-0.003327
-0.003334
-0.003342
-0.003841
-0.003840
-0.003842
-0.003844
-0.003848
-0.003852
-0.003858
-0.003865
-0.003873
-0.004399
-0.004399
-0.004400
-0.004402
-0.004405
-0.004410
-0.004415
-0.004422
-0.004430
-0.004984
-0.004983
-0.004984
-0.004986
-0.004990
-0.004994
-0.005000
-0.005006
-0.005014
-0.005595
-0.005594
-0.005595
-0.005597
-0.005600
-0.005604
-0.005610
-0.005616
-0.005624
-0.006232
-0.006231
-0.006232
-0.006234
-0.006237
-0.006241
-0.006246
-0.006252
-0.006260
-0.006895
-0.006895
-0.006895
-0.006897
-0.006900
-0.006904
-0.006909
-0.006915
-0.006922
-0.007585
-0.007584
-0.007585
-0.007586
-0.007588
-0.007592
-0.007597
-0.007603
-0.007610
-0.008300
-0.008299
-0.008299
-0.008300
-0.008303
-0.008306
-0.008311
-0.008317
-0.008324
-0.009040
-0.009039
-0.009039
-0.009040
-0.009042
-0.009046
-0.009051
-0.009056
-0.009063
-0.009805
-0.009804
-0.009804
-0.009805
-0.009808
-0.009811
-0.009815
-0.009820
-0.009827
-0.010596
-0.010594
-0.010594
-0.010595
-0.010597
-0.010600
-0.010604
-0.010609
-0.010616
-0.011410
-0.011409
-0.011408
-0.011409
-0.011411
-0.011414
-0.011418
-0.011423
-0.011429
-0.012249
-0.012247
-0.012247
-0.012247
-0.012249
-0.012252
-0.012256
-0.012260
-0.012266
-0.013111
-0.013110
-0.013109
-0.013110
-0.013111
-0.013113
-0.013117
-0.013121
-0.013127
-0.013997
-0.013995
-0.013994
-0.013995
-0.013996
-0.013998
-0.014001
-0.014006
-0.014011
-0.014905
-0.014903
-0.014902
-0.014902
-0.014903
-0.014906
-0.014909
-0.014913
-0.014918
-0.015836
-0.015834
-0.015833
-0.015833
-0.015833
-0.015835
-0.015838
-0.015842
-0.015847
-0.016788
-0.016786
-0.016785
-0.016785
-0.016785
-0.016787
-0.016790
-0.016793
-0.016798
-0.017762
-0.017760
-0.017758
-0.017758
-0.017758
-0.017760
-0.017762
-0.017766
-0.017770
-0.018757
-0.018754
-0.018752
-0.018752
-0.018752
-0.018754
-0.018756
-0.018759
-0.018763
-0.019771
-0.019769
-0.019767
-0.019766
-0.019767
-0.019768
-0.019770
-0.019773
-0.019777
-0.020806
-0.020803
-0.020801
-0.020800
-0.020800
-0.020801
-0.020803
-0.020806
-0.020809
-0.021859
-0.021856
-0.021854
-0.021853
-0.021853
-0.021854
-0.021855
-0.021858
-0.021861
-0.022931
-0.022928
-0.022926
-0.022924
-0.022924
-0.022925
-0.022926
-0.022928
-0.022932
-0.024021
-0.024018
-0.024016
-0.024014
-0.024013
-0.024014
-0.024015
-0.024017
-0.024020
-0.025128
-0.025125
-0.025122
-0.025121
-0.025120
-0.025120
-0.025121
-0.025123
-0.025125
-0.026251
-0.026248
-0.026246
-0.026244
-0.026243
-0.026243
-0.026244
-0.026245
-0.026248
-0.027391
-0.027388
-0.027385
-0.027383
-0.027382
-0.027382
-0.027382
-0.027384
-0.027386
-0.028547
-0.028543
-0.028540
-0.028538
-0.028537
-0.028536
-0.028536
-0.028537
-0.028539
-0.029716
-0.029712
-0.029709
-0.029707
-0.029706
-0.029705
-0.029705
-0.029706
-0.029707
-0.030900
-0.030897
-0.030893
-0.030891
-0.030889
-0.030888
-0.030888
-0.030889
-0.030890
-0.032098
-0.032094
-0.032091
-0.032088
-0.032086
-0.032085
-0.032084
-0.032085
-0.032086
-0.033308
-0.033304
-0.033300
-0.033298
-0.033296
-0.033294
-0.033294
-0.033293
-0.033295
-0.034530
-0.034526
-0.034523
-0.034520
-0.034517
-0.034516
-0.034515
-0.034515
-0.034515
-0.035764
-0.035760
-0.035756
-0.035753
-0.035751
-0.035749
-0.035748
-0.035747
-0.035747
-0.037009
-0.037005
-0.037001
-0.036998
-0.036995
-0.036993
-0.036992
-0.036991
-0.036991
-0.038264
-0.038260
-0.038256
-0.038252
-0.038249
-0.038247
-0.038246
-0.038245
-0.038244
-0.039529
-0.039524
-0.039520
-0.039516
-0.039513
-0.039511
-0.039509
-0.039508
-0.039508
-0.040802
-0.040798
-0.040793
-0.040790
-0.040786
-0.040784
-0.040782
-0.040781
-0.040780
-0.042084
-0.042079
-0.042075
-0.042071
-0.042068
-0.042065
-0.042063
-0.042061
-0.042060
-0.043374
-0.043369
-0.043364
-0.043360
-0.043357
-0.043354
-0.043352
-0.043349
-0.043348
-0.044670
-0.044666
-0.044661
-0.044657
-0.044653
-0.044650
-0.044647
-0.044645
-0.044643
-0.045974
-0.045969
-0.045964
-0.045960
-0.045956
-0.045952
-0.045950
-0.045947
-0.045945
-0.047283
-0.047278
-0.047273
-0.047268
-0.047264
-0.047261
-0.047258
-0.047255
-0.047253
-0.048597
-0.048592
-0.048587
-0.048582
-0.048578
-0.048574
-0.048571
-0.048568
-0.048566
-0.049916
-0.049911
-0.049906
-0.049901
-0.049897
-0.049893
-0.049889
-0.049886
-0.049883
-0.051239
-0.051234
-0.051229
-0.051224
-0.051219
-0.051215
-0.051212
-0.051208
-0.051205
-0.052566
-0.052560
-0.052555
-0.052550
-0.052546
-0.052541
-0.052538
-0.052534
-0.052531
-0.053896
-0.053890
-0.053885
-0.053879
-0.053875
-0.053870
-0.053866
-0.053863
-0.053859
-0.055228
-0.055222
-0.055217
-0.055211
-0.055206
-0.055202
-0.055198
-0.055194
-0.055190
-0.056562
-0.056556
-0.056550
-0.056545
-0.056540
-0.056535
-0.056531
-0.056527
-0.056523
-0.057898
-0.057892
-0.057886
-0.057880
-0.057875
-0.057870
-0.057865
-0.057861
-0.057857
-0.059234
-0.059228
-0.059222
-0.059216
-0.059211
-0.059206
-0.059201
-0.059197
-0.059192
-0.060571
-0.060564
-0.060558
-0.060553