# vtk DataFile Version 2.0
Generated volume Mesh
ASCII
DATASET UNSTRUCTURED_GRID
POINTS 891 float
0.005000 0.100000 0.000000
0.005000 0.000000 0.000000
0.005000 0.001250 0.000000
0.005000 0.002500 0.000000
0.005000 0.003750 0.000000
0.005000 0.005000 0.000000
0.005000 0.006250 0.000000
0.005000 0.007500 0.000000
0.005000 0.008750 0.000000
0.005000 0.010000 0.000000
0.005000 0.011250 0.000000
0.005000 0.012500 0.000000
0.005000 0.013750 0.000000
0.005000 0.015000 0.000000
0.005000 0.016250 0.000000
0.005000 0.017500 0.000000
0.005000 0.018750 0.000000
0.005000 0.020000 0.000000
0.005000 0.021250 0.000000
0.005000 0.022500 0.000000
0.005000 0.023750 0.000000
0.005000 0.025000 0.000000
0.005000 0.026250 0.000000
0.005000 0.027500 0.000000
0.005000 0.028750 0.000000
0.005000 0.030000 0.000000
0.005000 0.031250 0.000000
0.005000 0.032500 0.000000
0.005000 0.033750 0.000000
0.005000 0.035000 0.000000
0.005000 0.036250 0.000000
0.005000 0.037500 0.000000
0.005000 0.038750 0.000000
0.005000 0.040000 0.000000
0.005000 0.041250 0.000000
0.005000 0.042500 0.000000
0.005000 0.043750 0.000000
0.005000 0.045000 0.000000
0.005000 0.046250 0.000000
0.005000 0.047500 0.000000
0.005000 0.048750 0.000000
0.005000 0.050000 0.000000
0.005000 0.051250 0.000000
0.005000 0.052500 0.000000
0.005000 0.053750 0.000000
0.005000 0.055000 0.000000
0.005000 0.056250 0.000000
0.005000 0.057500 0.000000
0.005000 0.058750 0.000000
0.005000 0.060000 0.000000
0.005000 0.061250 0.000000
0.005000 0.062500 0.000000
0.005000 0.063750 0.000000
0.005000 0.065000 0.000000
0.005000 0.066250 0.000000
0.005000 0.067500 0.000000
0.005000 0.068750 0.000000
0.005000 0.070000 0.000000
0.005000 0.071250 0.000000
0.005000 0.072500 0.000000
0.005000 0.073750 0.000000
0.005000 0.075000 0.000000
0.005000 0.076250 0.000000
0.005000 0.077500 0.000000
0.005000 0.078750 0.000000
0.005000 0.080000 0.000000
0.005000 0.081250 0.000000
0.005000 0.082500 0.000000
0.005000 0.083750 0.000000
0.005000 0.085000 0.000000
0.005000 0.086250 0.000000
0.005000 0.087500 0.000000
0.005000 0.088750 0.000000
0.005000 0.090000 0.000000
0.005000 0.091250 0.000000
0.005000 0.092500 0.000000
0.005000 0.093750 0.000000
0.005000 0.095000 0.000000
0.005000 0.096250 0.000000
0.005000 0.097500 0.000000
0.005000 0.098750 0.000000
0.000000 0.000000 0.000000
0.000000 0.100000 0.000000
0.000000 0.098750 0.000000
0.000000 0.097500 0.000000
0.000000 0.096250 0.000000
0.000000 0.095000 0.000000
0.000000 0.093750 0.000000
0.000000 0.092500 0.000000
0.000000 0.091250 0.000000
0.000000 0.090000 0.000000
0.000000 0.088750 0.000000
0.000000 0.087500 0.000000
0.000000 0.086250 0.000000
0.000000 0.085000 0.000000
0.000000 0.083750 0.000000
0.000000 0.082500 0.000000
0.000000 0.081250 0.000000
0.000000 0.080000 0.000000
0.000000 0.078750 0.000000
0.000000 0.077500 0.000000
0.000000 0.076250 0.000000
0.000000 0.075000 0.000000
0.000000 0.073750 0.000000
0.000000 0.072500 0.000000
0.000000 0.071250 0.000000
0.000000 0.070000 0.000000
0.000000 0.068750 0.000000
0.000000 0.067500 0.000000
0.000000 0.066250 0.000000
0.000000 0.065000 0.000000
0.000000 0.063750 0.000000
0.000000 0.062500 0.000000
0.000000 0.061250 0.000000
0.000000 0.060000 0.000000
0.000000 0.058750 0.000000
0.000000 0.057500 0.000000
0.000000 0.056250 0.000000
0.000000 0.055000 0.000000
0.000000 0.053750 0.000000
0.000000 0.052500 0.000000
0.000000 0.051250 0.000000
0.000000 0.050000 0.000000
0.000000 0.048750 0.000000
0.000000 0.047500 0.000000
0.000000 0.046250 0.000000
0.000000 0.045000 0.000000
0.000000 0.043750 0.000000
0.000000 0.042500 0.000000
0.000000 0.041250 0.000000
0.000000 0.040000 0.000000
0.000000 0.038750 0.000000
0.000000 0.037500 0.000000
0.000000 0.036250 0.000000
0.000000 0.035000 0.000000
0.000000 0.033750 0.000000
0.000000 0.032500 0.000000
0.000000 0.031250 0.000000
0.000000 0.030000 0.000000
0.000000 0.028750 0.000000
0.000000 0.027500 0.000000
0.000000 0.026250 0.000000
0.000000 0.025000 0.000000
0.000000 0.023750 0.000000
0.000000 0.022500 0.000000
0.000000 0.021250 0.000000
0.000000 0.020000 0.000000
0.000000 0.018750 0.000000
0.000000 0.017500 0.000000
0.000000 0.016250 0.000000
0.000000 0.015000 0.000000
0.000000 0.013750 0.000000
0.000000 0.012500 0.000000
0.000000 0.011250 0.000000
0.000000 0.010000 0.000000
0.000000 0.008750 0.000000
0.000000 0.007500 0.000000
0.000000 0.006250 0.000000
0.000000 0.005000 0.000000
0.000000 0.003750 0.000000
0.000000 0.002500 0.000000
0.000000 0.001250 0.000000
0.000500 0.000000 0.000000
0.001000 0.000000 0.000000
0.001500 0.000000 0.000000
0.002000 0.000000 0.000000
0.002500 0.000000 0.000000
0.003000 0.000000 0.000000
0.003500 0.000000 0.000000
0.004000 0.000000 0.000000
0.004500 0.000000 0.000000
0.004500 0.100000 0.000000
0.004000 0.100000 0.000000
0.003500 0.100000 0.000000
0.003000 0.100000 0.000000
0.002500 0.100000 0.000000
0.002000 0.100000 0.000000
0.001500 0.100000 0.000000
0.001000 0.100000 0.000000
0.000500 0.100000 0.000000
0.000500 0.098750 0.000000
0.001000 0.098750 0.000000
0.001500 0.098750 0.000000
0.002000 0.098750 0.000000
0.002500 0.098750 0.000000
0.003000 0.098750 0.000000
0.003500 0.098750 0.000000
0.004000 0.098750 0.000000
0.004500 0.098750 0.000000
0.000500 0.097500 0.000000
0.001000 0.097500 0.000000
0.001500 0.097500 0.000000
0.002000 0.097500 0.000000
0.002500 0.097500 0.000000
0.003000 0.097500 0.000000
0.003500 0.097500 0.000000
0.004000 0.097500 0.000000
0.004500 0.097500 0.000000
0.000500 0.096250 0.000000
0.001000 0.096250 0.000000
0.001500 0.096250 0.000000
0.002000 0.096250 0.000000
0.002500 0.096250 0.000000
0.003000 0.096250 0.000000
0.003500 0.096250 0.000000
0.004000 0.096250 0.000000
0.004500 0.096250 0.000000
0.000500 0.095000 0.000000
0.001000 0.095000 0.000000
0.001500 0.095000 0.000000
0.002000 0.095000 0.000000
0.002500 0.095000 0.000000
0.003000 0.095000 0.000000
0.003500 0.095000 0.000000
0.004000 0.095000 0.000000
0.004500 0.095000 0.000000
0.000500 0.093750 0.000000
0.001000 0.093750 0.000000
0.001500 0.093750 0.000000
0.002000 0.093750 0.000000
0.002500 0.093750 0.000000
0.003000 0.093750 0.000000
0.003500 0.093750 0.000000
0.004000 0.093750 0.000000
0.004500 0.093750 0.000000
0.000500 0.092500 0.000000
0.001000 0.092500 0.000000
0.001500 0.092500 0.000000
0.002000 0.092500 0.000000
0.002500 0.092500 0.000000
0.003000 0.092500 0.000000
0.003500 0.092500 0.000000
0.004000 0.092500 0.000000
0.004500 0.092500 0.000000
0.000500 0.091250 0.000000
0.001000 0.091250 0.000000
0.001500 0.091250 0.000000
0.002000 0.091250 0.000000
0.002500 0.091250 0.000000
0.003000 0.091250 0.000000
0.003500 0.091250 0.000000
0.004000 0.091250 0.000000
0.004500 0.091250 0.000000
0.000500 0.090000 0.000000
0.001000 0.090000 0.000000
0.001500 0.090000 0.000000
0.002000 0.090000 0.000000
0.002500 0.090000 0.000000
0.003000 0.090000 0.000000
0.003500 0.090000 0.000000
0.004000 0.090000 0.000000
0.004500 0.090000 0.000000
0.000500 0.088750 0.000000
0.001000 0.088750 0.000000
0.001500 0.088750 0.000000
0.002000 0.088750 0.000000
0.002500 0.088750 0.000000
0.003000 0.088750 0.000000
0.003500 0.088750 0.000000
0.004000 0.088750 0.000000
0.004500 0.088750 0.000000
0.000500 0.087500 0.000000
0.001000 0.087500 0.000000
0.001500 0.087500 0.000000
0.002000 0.087500 0.000000
0.002500 0.087500 0.000000
0.003000 0.087500 0.000000
0.003500 0.087500 0.000000
0.004000 0.087500 0.000000
0.004500 0.087500 0.000000
0.000500 0.086250 0.000000
0.001000 0.086250 0.000000
0.001500 0.086250 0.000000
0.002000 0.086250 0.000000
0.002500 0.086250 0.000000
0.003000 0.086250 0.000000
0.003500 0.086250 0.000000
0.004000 0.086250 0.000000
0.004500 0.086250 0.000000
0.000500 0.085000 0.000000
0.001000 0.085000 0.000000
0.001500 0.085000 0.000000
0.002000 0.085000 0.000000
0.002500 0.085000 0.000000
0.003000 0.085000 0.000000
0.003500 0.085000 0.000000
0.004000 0.085000 0.000000
0.004500 0.085000 0.000000
0.000500 0.083750 0.000000
0.001000 0.083750 0.000000
0.001500 0.083750 0.000000
0.002000 0.083750 0.000000
0.002500 0.083750 0.000000
0.003000 0.083750 0.000000
0.003500 0.083750 0.000000
0.004000 0.083750 0.000000
0.004500 0.083750 0.000000
0.000500 0.082500 0.000000
0.001000 0.082500 0.000000
0.001500 0.082500 0.000000
0.002000 0.082500 0.000000
0.002500 0.082500 0.000000
0.003000 0.082500 0.000000
0.003500 0.082500 0.000000
0.004000 0.082500 0.000000
0.004500 0.082500 0.000000
0.000500 0.081250 0.000000
0.001000 0.081250 0.000000
0.001500 0.081250 0.000000
0.002000 0.081250 0.000000
0.002500 0.081250 0.000000
0.003000 0.081250 0.000000
0.003500 0.081250 0.000000
0.004000 0.081250 0.000000
0.004500 0.081250 0.000000
0.000500 0.080000 0.000000
0.001000 0.080000 0.000000
0.001500 0.080000 0.000000
0.002000 0.080000 0.000000
0.002500 0.080000 0.000000
0.003000 0.080000 0.000000
0.003500 0.080000 0.000000
0.004000 0.080000 0.000000
0.004500 0.080000 0.000000
0.000500 0.078750 0.000000
0.001000 0.078750 0.000000
0.001500 0.078750 0.000000
0.002000 0.078750 0.000000
0.002500 0.078750 0.000000
0.003000 0.078750 0.000000
0.003500 0.078750 0.000000
0.004000 0.078750 0.000000
0.004500 0.078750 0.000000
0.000500 0.077500 0.000000
0.001000 0.077500 0.000000
0.001500 0.077500 0.000000
0.002000 0.077500 0.000000
0.002500 0.077500 0.000000
0.003000 0.077500 0.000000
0.003500 0.077500 0.000000
0.004000 0.077500 0.000000
0.004500 0.077500 0.000000
0.000500 0.076250 0.000000
0.001000 0.076250 0.000000
0.001500 0.076250 0.000000
0.002000 0.076250 0.000000
0.002500 0.076250 0.000000
0.003000 0.076250 0.000000
0.003500 0.076250 0.000000
0.004000 0.076250 0.000000
0.004500 0.076250 0.000000
0.000500 0.075000 0.000000
0.001000 0.075000 0.000000
0.001500 0.075000 0.000000
0.002000 0.075000 0.000000
0.002500 0.075000 0.000000
0.003000 0.075000 0.000000
0.003500 0.075000 0.000000
0.004000 0.075000 0.000000
0.004500 0.075000 0.000000
0.000500 0.073750 0.000000
0.001000 0.073750 0.000000
0.001500 0.073750 0.000000
0.002000 0.073750 0.000000
0.002500 0.073750 0.000000
0.003000 0.073750 0.000000
[...]
POINT_DATA 891
SCALARS u1 float
LOOKUP_TABLE default
-4e-18
-1e-06
-1e-06
-1e-06
-1e-06
-1e-06
-1e-06
-1e-06
-1e-06
-1e-06
-1e-06
-1e-06
-1e-06
-1e-06
-1e-06
-1e-06
-1e-06
-1e-06
-1e-06
-1e-06
-1e-06
-1e-06
-1e-06
-1e-06
-1e-06
-1e-06
-1e-06
-1e-06
-1e-06
-1e-06
-1e-06
-1e-06
-1e-06
-1e-06
-1e-06
-1e-06
-1e-06
-1e-06
-1e-06
-1e-06
-1e-06
-1e-06
-1e-06
-1e-06
-1e-06
-1e-06
-1e-06
-1e-06
-1e-06
-1e-06
-1e-06
-1e-06
-1e-06
-1e-06
-1e-06
-1e-06
-1e-06
-1e-06
-1e-06
-1e-06
-1e-06
-1e-06
-1e-06
-1e-06
-1e-06
-1e-06
-1e-06
-1e-06
-1e-06
-1e-06
-1e-06
-1e-06
-1e-06
-1e-06
-1e-06
-1e-06
-1e-06
-1e-06
-1e-06
-1e-06
-1e-06
1e-06
2e-18
1e-06
1e-06
1e-06
1e-06
1e-06
1e-06
1e-06
1e-06
1e-06
1e-06
1e-06
1e-06
1e-06
1e-06
1e-06
1e-06
1e-06
1e-06
1e-06
1e-06
1e-06
1e-06
1e-06
1e-06
1e-06
1e-06
1e-06
1e-06
1e-06
1e-06
1e-06
1e-06
1e-06
1e-06
1e-06
1e-06
1e-06
1e-06
1e-06
1e-06
1e-06
1e-06
1e-06
1e-06
1e-06
1e-06
1e-06
1e-06
1e-06
1e-06
1e-06
1e-06
1e-06
1e-06
1e-06
1e-06
1e-06
1e-06
1e-06
1e-06
1e-06
1e-06
1e-06
1e-06
1e-06
1e-06
1e-06
1e-06
1e-06
1e-06
1e-06
1e-06
1e-06
1e-06
1e-06
1e-06
1e-06
1e-06
1e-06
1e-06
8e-07
5e-07
3e-07
-4e-15
-3e-07
-5e-07
-8e-07
-1e-06
-5e-18
-1e-17
2e-17
2e-17
-2e-18
2e-17
-6e-18
-2e-17
-3e-17
7e-07
5e-07
3e-07
2e-07
8e-15
-2e-07
-3e-07
-5e-07
-7e-07
1e-06
8e-07
5e-07
2e-07
2e-15
-2e-07
-5e-07
-8e-07
-1e-06
1e-06
8e-07
5e-07
3e-07
3e-15
-3e-07
-5e-07
-8e-07
-1e-06
1e-06
8e-07
5e-07
3e-07
3e-15
-3e-07
-5e-07
-8e-07
-1e-06
1e-06
8e-07
5e-07
3e-07
3e-15
-3e-07
-5e-07
-8e-07
-1e-06
1e-06
8e-07
5e-07
3e-07
2e-15
-3e-07
-5e-07
-8e-07
-1e-06
1e-06
8e-07
5e-07
3e-07
1e-15
-3e-07
-5e-07
-8e-07
-1e-06
1e-06
8e-07
5e-07
3e-07
8e-16
-3e-07
-5e-07
-8e-07
-1e-06
1e-06
8e-07
5e-07
3e-07
1e-16
-3e-07
-5e-07
-8e-07
-1e-06
1e-06
8e-07
5e-07
3e-07
-5e-16
-3e-07
-5e-07
-8e-07
-1e-06
1e-06
8e-07
5e-07
3e-07
-1e-15
-3e-07
-5e-07
-8e-07
-1e-06
1e-06
8e-07
5e-07
3e-07
-2e-15
-3e-07
-5e-07
-8e-07
-1e-06
1e-06
8e-07
5e-07
3e-07
-2e-15
-3e-07
-5e-07
-8e-07
-1e-06
1e-06
8e-07
5e-07
3e-07
-3e-15
-3e-07
-5e-07
-8e-07
-1e-06
1e-06
8e-07
5e-07
3e-07
-3e-15
-3e-07
-5e-07
-8e-07
-1e-06
1e-06
8e-07
5e-07
3e-07
-3e-15
-3e-07
-5e-07
-8e-07
-1e-06
1e-06
8e-07
5e-07
3e-07
-3e-15
-3e-07
-5e-07
-8e-07
-1e-06
1e-06
8e-07
5e-07
3e-07
-4e-15
-3e-07
-5e-07
-8e-07
-1e-06
1e-06
8e-07
5e-07
3e-07
-4e-15
-3e-07
-5e-07
-8e-07
-1e-06
1e-06
8e-07
5e-07
3e-07
-4e-15
-3e-07
-5e-07
-8e-07
-1e-06
1e-06
8e-07
5e-07
3e-07
-4e-15
-3e-07
-5e-07
-8e-07
-1e-06
1e-06
8e-07
5e-07
3e-07
-4e-15
-3e-07
-5e-07
-8e-07
-1e-06
1e-06
8e-07
5e-07
3e-07
-4e-15
-3e-07
-5e-07
-8e-07
-1e-06
1e-06
8e-07
5e-07
3e-07
-4e-15
-3e-07
-5e-07
-8e-07
-1e-06
1e-06
8e-07
5e-07
3e-07
-4e-15
-3e-07
-5e-07
-8e-07
-1e-06
1e-06
8e-07
5e-07
3e-07
-4e-15
-3e-07
-5e-07
-8e-07
-1e-06
1e-06
8e-07
5e-07
3e-07
-4e-15
-3e-07
-5e-07
-8e-07
-1e-06
1e-06
8e-07
5e-07
3e-07
-4e-15
-3e-07
-5e-07
-8e-07
-1e-06
1e-06
8e-07
5e-07
3e-07
-4e-15
-3e-07
-5e-07
-8e-07
-1e-06
1e-06
8e-07
5e-07
3e-07
-4e-15
-3e-07
-5e-07
-8e-07
-1e-06
1e-06
8e-07
5e-07
3e-07
-4e-15
-3e-07
-5e-07
-8e-07
-1e-06
1e-06
8e-07
5e-07
3e-07
-4e-15
-3e-07
-5e-07
-8e-07
-1e-06
1e-06
8e-07
5e-07
3e-07
-4e-15
-3e-07
-5e-07
-8e-07
-1e-06
1e-06
8e-07
5e-07
3e-07
-4e-15
-3e-07
-5e-07
-8e-07
-1e-06
1e-06
8e-07
5e-07
3e-07
-4e-15
-3e-07
-5e-07
-8e-07
-1e-06
1e-06
8e-07
5e-07
3e-07
-4e-15
-3e-07
-5e-07
-8e-07
-1e-06
1e-06
8e-07
5e-07
3e-07
-4e-15
-3e-07
-5e-07
-8e-07
-1e-06
1e-06
8e-07
5e-07
3e-07
-4e-15
-3e-07
-5e-07
-8e-07
-1e-06
1e-06
8e-07
5e-07
3e-07
-4e-15
-3e-07
-5e-07
-8e-07
-1e-06
1e-06
8e-07
5e-07
3e-07
-4e-15
-3e-07
-5e-07
-8e-07
-1e-06
1e-06
8e-07
5e-07
3e-07
-4e-15
-3e-07
-5e-07
-8e-07
-1e-06
1e-06
8e-07
5e-07
3e-07
-4e-15
-3e-07
-5e-07
-8e-07
-1e-06
1e-06
8e-07
5e-07
3e-07
-4e-15
-3e-07
-5e-07
-8e-07
-1e-06
1e-06
8e-07
5e-07
3e-07
-4e-15
-3e-07
-5e-07
-8e-07
-1e-06
1e-06
8e-07
5e-07
3e-07
-4e-15
-3e-07
-5e-07
-8e-07
-1e-06
1e-06
8e-07
5e-07
3e-07
-4e-15
-3e-07
-5e-07
-8e-07
-1e-06
1e-06
8e-07
5e-07
3e-07
-4e-15
-3e-07
-5e-07
-8e-07
-1e-06
1e-06
8e-07
5e-07
3e-07
-4e-15
-3e-07
-5e-07
-8e-07
-1e-06
1e-06
8e-07
5e-07
3e-07
-4e-15
-3e-07
-5e-07
-8e-07
-1e-06
1e-06
8e-07
5e-07
3e-07
-4e-15
-3e-07
-5e-07
-8e-07
-1e-06
1e-06
8e-07
5e-07
3e-07
-4e-15
-3e-07
-5e-07
-8e-07
-1e-06
1e-06
8e-07
5e-07
3e-07
-4e-15
-3e-07
-5e-07
-8e-07
-1e-06
1e-06
8e-07
5e-07
3e-07
-4e-15
-3e-07
-5e-07
-8e-07
-1e-06
1e-06
8e-07
5e-07
3e-07
-4e-15
-3e-07
-5e-07
-8e-07
-1e-06
1e-06
8e-07
5e-07
3e-07
-4e-15
-3e-07
-5e-07
-8e-07
-1e-06
1e-06
8e-07
5e-07
3e-07
-4e-15
-3e-07
-5e-07
-8e-07
-1e-06
1e-06
8e-07
5e-07
3e-07
-4e-15
-3e-07
-5e-07
-8e-07
-1e-06
1e-06
8e-07
5e-07
3e-07
-4e-15
-3e-07
-5e-07
-8e-07
-1e-06
1e-06
8e-07
5e-07
3e-07
-4e-15
-3e-07
-5e-07
-8e-07
-1e-06
1e-06
8e-07
5e-07
3e-07
-4e-15
-3e-07
-5e-07
-8e-07
-1e-06
1e-06
8e-07
5e-07
3e-07
-4e-15
-3e-07
-5e-07
-8e-07
-1e-06
1e-06
8e-07
5e-07
3e-07
-4e-15
-3e-07
-5e-07
-8e-07
-1e-06
1e-06
8e-07
5e-07
3e-07
-4e-15
-3e-07
-5e-07
-8e-07
-1e-06
1e-06
8e-07
5e-07
3e-07
-4e-15
-3e-07
-5e-07
-8e-07
-1e-06
1e-06
8e-07
5e-07
3e-07
-4e-15
-3e-07
-5e-07
-8e-07
-1e-06
1e-06
8e-07
5e-07
3e-07
-4e-15
-3e-07
-5e-07
-8e-07
-1e-06
1e-06
8e-07
5e-07
3e-07
-4e-15
-3e-07
-5e-07
-8e-07
-1e-06
1e-06
8e-07
5e-07
3e-07
-4e-15
-3e-07
-5e-07
-8e-07
-1e-06
1e-06
8e-07
5e-07
3e-07
-4e-15
-3e-07
-5e-07
-8e-07
-1e-06
1e-06
8e-07
5e-07
3e-07
-4e-15
-3e-07
-5e-07
-8e-07
-1e-06
1e-06
8e-07
5e-07
3e-07
-4e-15
-3e-07
-5e-07
-8e-07
-1e-06
1e-06
8e-07
5e-07
3e-07
-4e-15
-3e-07
-5e-07
-8e-07
-1e-06
1e-06
8e-07
5e-07
3e-07
-4e-15
-3e-07
-5e-07
-8e-07
-1e-06
1e-06
8e-07
5e-07
3e-07
-4e-15
-3e-07
-5e-07
-8e-07
-1e-06
1e-06
8e-07
5e-07
3e-07
-4e-15
-3e-07
-5e-07
-8e-07
-1e-06
1e-06
8e-07
5e-07
3e-07
-4e-15
-3e-07
-5e-07
-8e-07
-1e-06
1e-06
8e-07
5e-07
3e-07
-4e-15
-3e-07
-5e-07
-8e-07
-1e-06
1e-06
8e-07
5e-07
3e-07
-4e-15
-3e-07
-5e-07
-8e-07
-1e-06
1e-06
8e-07
5e-07
3e-07
-4e-15
-3e-07
-5e-07
-8e-07
-1e-06
SCALARS u2 float
LOOKUP_TABLE default
-2e-17
-0.0004
-0.0003
-0.0003
-0.0003
-0.0003
-0.0003
-0.0003
-0.0003
-0.0003
-0.0003
-0.0003
-0.0003
-0.0003
-0.0003
-0.0003
-0.0003
-0.0003
-0.0003
-0.0003
-0.0003
-0.0003
-0.0003
-0.0003
-0.0003
-0.0002
-0.0002
-0.0002
-0.0002
-0.0002
-0.0002
-0.0002
-0.0002
-0.0002
-0.0002
-0.0002
-0.0002
-0.0002
-0.0002
-0.0002
-0.0002
-0.0002
-0.0002
-0.0002
-0.0002
-0.0002
-0.0002
-0.0001
-0.0001
-0.0001
-0.0001
-0.0001
-0.0001
-0.0001
-0.0001
-0.0001
-0.0001
-0.0001
-0.0001
-0.0001
-9e-05
-9e-05
-8e-05
-8e-05
-7e-05
-7e-05
-7e-05
-6e-05
-6e-05
-5e-05
-5e-05
-4e-05
-4e-05
-4e-05
-3e-05
-3e-05
-2e-05
-2e-05
-1e-05
-9e-06
-5e-06
-0.0004
1e-18
-5e-06
-9e-06
-1e-05
-2e-05
-2e-05
-3e-05
-3e-05
-4e-05
-4e-05
-4e-05
-5e-05
-5e-05
-6e-05
-6e-05
-7e-05
-7e-05
-7e-05
-8e-05
-8e-05
-9e-05
-9e-05
-0.0001
-0.0001
-0.0001
-0.0001
-0.0001
-0.0001
-0.0001
-0.0001
-0.0001
-0.0001
-0.0001
-0.0001
-0.0001
-0.0002
-0.0002
-0.0002
-0.0002
-0.0002
-0.0002
-0.0002
-0.0002
-0.0002
-0.0002
-0.0002
-0.0002
-0.0002
-0.0002
-0.0002
-0.0002
-0.0002
-0.0002
-0.0002
-0.0002
-0.0002
-0.0002
-0.0003
-0.0003
-0.0003
-0.0003
-0.0003
-0.0003
-0.0003
-0.0003
-0.0003
-0.0003
-0.0003
-0.0003
-0.0003
-0.0003
-0.0003
-0.0003
-0.0003
-0.0003
-0.0003
-0.0003
-0.0003
-0.0003
-0.0003
-0.0004
-0.0004
-0.0004
-0.0004
-0.0004
-0.0004
-0.0004
-0.0004
-0.0004
-2e-17
-2e-17
-7e-18
-1e-17
-3e-17
2e-17
6e-17
-5e-17
-4e-17
-4e-06
-4e-06
-4e-06
-4e-06
-4e-06
-4e-06
-4e-06
-4e-06
-4e-06
-9e-06
-9e-06
-9e-06
-9e-06
-9e-06
-9e-06
-9e-06
-9e-06
-9e-06
-1e-05
-1e-05
-1e-05
-1e-05
-1e-05
-1e-05
-1e-05
-1e-05
-1e-05
-2e-05
-2e-05
-2e-05
-2e-05
-2e-05
-2e-05
-2e-05
-2e-05
-2e-05
-2e-05
-2e-05
-2e-05
-2e-05
-2e-05
-2e-05
-2e-05
-2e-05
-2e-05
-3e-05
-3e-05
-3e-05
-3e-05
-3e-05
-3e-05
-3e-05
-3e-05
-3e-05
-3e-05
-3e-05
-3e-05
-3e-05
-3e-05
-3e-05
-3e-05
-3e-05
-3e-05
-4e-05
-4e-05
-4e-05
-4e-05
-4e-05
-4e-05
-4e-05
-4e-05
-4e-05
-4e-05
-4e-05
-4e-05
-4e-05
-4e-05
-4e-05
-4e-05
-4e-05
-4e-05
-4e-05
-4e-05
-4e-05
-4e-05
-4e-05
-4e-05
-4e-05
-4e-05
-4e-05
-5e-05
-5e-05
-5e-05
-5e-05
-5e-05
-5e-05
-5e-05
-5e-05
-5e-05
-5e-05
-5e-05
-5e-05
-5e-05
-5e-05
-5e-05
-5e-05
-5e-05
-5e-05
-6e-05
-6e-05
-6e-05
-6e-05
-6e-05
-6e-05
-6e-05
-6e-05
-6e-05
-6e-05
-6e-05
-6e-05
-6e-05
-6e-05
-6e-05
-6e-05
-6e-05
-6e-05
-7e-05
-7e-05
-7e-05
-7e-05
-7e-05
-7e-05
-7e-05
-7e-05
-7e-05
-7e-05
-7e-05
-7e-05
-7e-05
-7e-05
-7e-05
-7e-05
-7e-05
-7e-05
-7e-05
-7e-05
-7e-05
-7e-05
-7e-05
-7e-05
-7e-05
-7e-05
-7e-05
-8e-05
-8e-05
-8e-05
-8e-05
-8e-05
-8e-05
-8e-05
-8e-05
-8e-05
-8e-05
-8e-05
-8e-05
-8e-05
-8e-05
-8e-05
-8e-05
-8e-05
-8e-05
-9e-05
-9e-05
-9e-05
-9e-05
-9e-05
-9e-05
-9e-05
-9e-05
-9e-05
-9e-05
-9e-05
-9e-05
-9e-05
-9e-05
-9e-05
-9e-05
-9e-05
-9e-05
-0.0001
-0.0001
-0.0001
-0.0001
-0.0001
-0.0001
-0.0001
-0.0001
-0.0001
-0.0001
-0.0001
-0.0001
-0.0001
-0.0001
-0.0001
-0.0001
-0.0001
-0.0001
-0.0001
-0.0001
-0.0001
-0.0001
-0.0001
-0.0001
-0.0001
-0.0001
-0.0001
-0.0001
-0.0001
-0.0001
-0.0001
-0.0001
-0.0001
-0.0001
-0.0001
-0.0001
-0.0001
-0.0001
-0.0001
-0.0001
-0.0001
-0.0001
-0.0001
-0.0001
-0.0001
-0.0001
-0.0001
-0.0001
-0.0001
-0.0001
-0.0001
-0.0001
-0.0001
-0.0001
-0.0001
-0.0001
-0.0001
-0.0001
-0.0001
-0.0001
-0.0001
-0.0001
-0.0001
-0.0001
-0.0001
-0.0001
-0.0001
-0.0001
-0.0001
-0.0001
-0.0001
-0.0001
-0.0001
-0.0001
-0.0001
-0.0001
-0.0001
-0.0001
-0.0001
-0.0001
-0.0001
-0.0001
-0.0001
-0.0001
-0.0001
-0.0001
-0.0001
-0.0001
-0.0001
-0.0001
-0.0001
-0.0001
-0.0001
-0.0001
-0.0001
-0.0001
-0.0001
-0.0001
-0.0001
-0.0001
-0.0001
-0.0001
-0.0001
-0.0001
-0.0001
-0.0001
-0.0001
-0.0001
-0.0001
-0.0001
-0.0001
-0.0001
-0.0001
-0.0001
-0.0001
-0.0001
-0.0001
-0.0002
-0.0002
-0.0002
-0.0002
-0.0002
-0.0002
-0.0002
-0.0002
-0.0002
-0.0002
-0.0002
-0.0002
-0.0002
-0.0002
-0.0002
-0.0002
-0.0002
-0.0002
-0.0002
-0.0002
-0.0002
-0.0002
-0.0002
-0.0002
-0.0002
-0.0002
-0.0002
-0.0002
-0.0002
-0.0002
-0.0002
-0.0002
-0.0002
-0.0002
-0.0002
-0.0002
-0.0002
-0.0002
-0.0002
-0.0002
-0.0002
-0.0002
-0.0002
-0.0002
-0.0002
-0.0002
-0.0002
-0.0002
-0.0002
-0.0002
-0.0002
-0.0002
-0.0002
-0.0002
-0.0002
-0.0002
-0.0002
-0.0002
-0.0002
-0.0002
-0.0002
-0.0002
-0.0002
-0.0002
-0.0002
-0.0002
-0.0002
-0.0002
-0.0002
-0.0002
-0.0002
-0.0002
-0.0002
-0.0002
-0.0002
-0.0002
-0.0002
-0.0002
-0.0002
-0.0002
-0.0002
-0.0002
-0.0002
-0.0002
-0.0002
-0.0002
-0.0002
-0.0002
-0.0002
-0.0002
-0.0002
-0.0002
-0.0002
-0.0002
-0.0002
-0.0002
-0.0002
-0.0002
-0.0002
-0.0002
-0.0002
-0.0002
-0.0002
-0.0002
-0.0002
-0.0002
-0.0002
-0.0002
-0.0002
-0.0002
-0.0002
-0.0002
-0.0002
-0.0002
-0.0002
-0.0002
-0.0002
-0.0002
-0.0002
-0.0002
-0.0002
-0.0002
-0.0002
-0.0002
-0.0002
-0.0002
-0.0002
-0.0002
-0.0002
-0.0002
-0.0002
-0.0002
-0.0002
-0.0002
-0.0002
-0.0002
-0.0002
-0.0002
-0.0002
-0.0002
-0.0002
-0.0002
-0.0002
-0.0002
-0.0002
-0.0002
-0.0002
-0.0002
-0.0002
-0.0002
-0.0002
-0.0002
-0.0002
-0.0002
-0.0002
-0.0002
-0.0002
-0.0002
-0.0002
-0.0002
-0.0002
-0.0002
-0.0002
-0.0002
-0.0002
-0.0002
-0.0002
-0.0002
-0.0002
-0.0002
-0.0002
-0.0002
-0.0002
-0.0002
-0.0002
-0.0002
-0.0002
-0.0002
-0.0002
-0.0002
-0.0002
-0.0002
-0.0002
-0.0002
-0.0002
-0.0002
-0.0002
-0.0002
-0.0002
-0.0002
-0.0002
-0.0002
-0.0002
-0.0002
-0.0002
-0.0002
-0.0002
-0.0002
-0.0003
-0.0003
-0.0003
-0.0003
-0.0003
-0.0003
-0.0003
-0.0003
-0.0003
-0.0003
-0.0003
-0.0003
-0.0003
-0.0003
-0.0003
-0.0003
-0.0003
-0.0003
-0.0003
-0.0003
-0.0003
-0.0003
-0.0003
-0.0003
-0.0003
-0.0003
-0.0003
-0.0003
-0.0003
-0.0003
-0.0003
-0.0003
-0.0003
-0.0003
-0.0003
-0.0003
-0.0003
-0.0003
-0.0003
-0.0003
-0.0003
-0.0003
-0.0003
-0.0003
-0.0003
-0.0003
-0.0003
-0.0003
-0.0003
-0.0003
-0.0003
-0.0003
-0.0003
-0.0003
-0.0003
-0.0003
-0.0003
-0.0003
-0.0003
-0.0003
-0.0003
-0.0003
-0.0003
-0.0003
-0.0003
-0.0003
-0.0003
-0.0003
-0.0003
-0.0003
-0.0003
-0.0003
-0.0003
-0.0003
-0.0003
-0.0003
-0.0003
-0.0003
-0.0003
-0.0003
-0.0003
-0.0003
-0.0003
-0.0003
-0.0003
-0.0003
-0.0003
-0.0003
-0.0003
-0.0003
-0.0003
-0.0003
-0.0003
-0.0003
-0.0003
-0.0003
-0.0003
-0.0003
-0.0003
-0.0003
-0.0003
-0.0003
-0.0003
-0.0003
-0.0003
-0.0003
-0.0003
-0.0003
-0.0003
-0.0003
-0.0003
-0.0003
-0.0003
-0.0003
-0.0003
-0.0003
-0.0003
-0.0003
-0.0003
-0.0003
-0.0003
-0.0003
-0.0003
-0.0003
-0.0003
-0.0003
-0.0003
-0.0003
-0.0003
-0.0003
-0.0003
-0.0003
-0.0003
-0.0003
-0.0003
-0.0003
-0.0003
-0.0003
-0.0003
-0.0003
-0.0003
-0.0003
-0.0003
-0.0003
-0.0003
-0.0003
-0.0003
-0.0003
-0.0003
-0.0003
-0.0003
-0.0003
-0.0003
-0.0003
-0.0003
-0.0003
-0.0003
-0.0003
-0.0003
-0.0003
-0.0003
-0.0003
-0.0003
-0.0003
-0.0003
-0.0003
-0.0003
-0.0003
-0.0003
-0.0003
-0.0003
-0.0003
-0.0003
-0.0003
-0.0003
-0.0003
-0.0003
-0.0003
-0.0003
-0.0003
-0.0003
-0.0003
-0.0003
-0.0003
-0.0003
-0.0003
-0.0003
-0.0003
-0.0003
-0.0003
-0.0003
-0.0003
-0.0003
-0.0003
-0.0003
-0.0003
-0.0003
-0.0003
-0.0003
-0.0003
-0.0003
-0.0003
-0.0003
-0.0003
-0.0003
-0.0003
-0.0003
SCALARS strain_1 float
LOOKUP_TABLE default
-0.000094
-0.150355
-0.148080
-0.145796
-0.143500
-0.141194
-0.138877
-0.136552
-0.134218
-0.131875
-0.129526
-0.127169
-0.124806
-0.122437
-0.120064
-0.117687
-0.115306
-0.112923
-0.110538
-0.108152
-0.105766
-0.103380
-0.100997
-0.098616
-0.096238
-0.093865
-0.091497
-0.089136
-0.086782
-0.084436
-0.082100
-0.079774
-0.077460
-0.075159
-0.072871
-0.070599
-0.068342
-0.066103
-0.063882
-0.061680
-0.059499
-0.057339
-0.055204
-0.053091
-0.051004
-0.048943
-0.046910
-0.044905
-0.042931
-0.040986
-0.039074
-0.037195
-0.035349
-0.033540
-0.031766
-0.030029
-0.028330
-0.026670
-0.025050
-0.023471
-0.021932
-0.020437
-0.018984
-0.017575
-0.016210
-0.014889
-0.013614
-0.012385
-0.011203
-0.010066
-0.008976
-0.007933
-0.006938
-0.005990
-0.005089
-0.004235
-0.003429
-0.002670
-0.001957
-0.001290
-0.000669
-0.150488
-0.000003
-0.000580
-0.001203
-0.001871
-0.002586
-0.003347
-0.004156
-0.005012
-0.005915
-0.006865
-0.007863
-0.008908
-0.010001
-0.011140
-0.012325
-0.013558
-0.014835
-0.016159
-0.017527
-0.018939
-0.020395
-0.021894
-0.023435
-0.025019
-0.026642
-0.028305
-0.030007
-0.031748
-0.033525
-0.035338
-0.037187
-0.039070
-0.040985
-0.042932
-0.044911
-0.046919
-0.048956
-0.051021
-0.053111
-0.055227
-0.057367
-0.059529
-0.061714
-0.063920
-0.066143
-0.068386
-0.070647
-0.072922
-0.075213
-0.077518
-0.079835
-0.082164
-0.084503
-0.086852
-0.089209
-0.091573
-0.093944
-0.096320
-0.098700
-0.101085
-0.103471
-0.105859
-0.108248
-0.110636
-0.113024
-0.115410
-0.117793
-0.120172
-0.122548
-0.124918
-0.127284
-0.129643
-0.131994
-0.134338
-0.136675
-0.139002
-0.141320
-0.143628
-0.145926
-0.148213
-0.150475
-0.150463
-0.150450
-0.150436
-0.150424
-0.150410
-0.150396
-0.150382
-0.150369
-0.000076
-0.000061
-0.000046
-0.000034
-0.000024
-0.000017
-0.000010
-0.000006
-0.000004
-0.000580
-0.000582
-0.000586
-0.000592
-0.000600
-0.000610
-0.000622
-0.000635
-0.000651
-0.001202
-0.001204
-0.001208
-0.001214
-0.001221
-0.001231
-0.001243
-0.001257
-0.001272
-0.001870
-0.001872
-0.001876
-0.001881
-0.001889
-0.001898
-0.001909
-0.001923
-0.001939
-0.002585
-0.002586
-0.002590
-0.002595
-0.002602
-0.002612
-0.002623
-0.002637
-0.002652
-0.003346
-0.003347
-0.003350
-0.003356
-0.003362
-0.003372
-0.003383
-0.003396
-0.003412
-0.004154
-0.004155
-0.004158
-0.004163
-0.004170
-0.004179
-0.004190
-0.004203
-0.004219
-0.005010
-0.005011
-0.005013
-0.005018
-0.005025
-0.005033
-0.005045
-0.005057
-0.005072
-0.005913
-0.005913
-0.005916
-0.005921
-0.005927
-0.005936
-0.005946
-0.005959
-0.005973
-0.006863
-0.006864
-0.006866
-0.006870
-0.006876
-0.006885
-0.006895
-0.006908
-0.006922
-0.007861
-0.007861
-0.007863
-0.007867
-0.007873
-0.007881
-0.007891
-0.007903
-0.007917
-0.008906
-0.008906
-0.008908
-0.008911
-0.008917
-0.008925
-0.008934
-0.008946
-0.008960
-0.009998
-0.009998
-0.009999
-0.010003
-0.010008
-0.010016
-0.010025
-0.010037
-0.010050
-0.011137
-0.011136
-0.011137
-0.011140
-0.011146
-0.011153
-0.011162
-0.011174
-0.011187
-0.012323
-0.012321
-0.012322
-0.012326
-0.012330
-0.012338
-0.012346
-0.012358
-0.012370
-0.013555
-0.013553
-0.013554
-0.013556
-0.013561
-0.013568
-0.013576
-0.013587
-0.013600
-0.014832
-0.014831
-0.014831
-0.014833
-0.014838
-0.014844
-0.014852
-0.014863
-0.014875
-0.016155
-0.016153
-0.016153
-0.016156
-0.016160
-0.016166
-0.016174
-0.016184
-0.016196
-0.017523
-0.017521
-0.017521
-0.017523
-0.017526
-0.017532
-0.017540
-0.017549
-0.017561
-0.018935
-0.018933
-0.018933
-0.018934
-0.018937
-0.018943
-0.018950
-0.018960
-0.018971
-0.020391
-0.020388
-0.020388
-0.020389
-0.020392
-0.020397
-0.020404
-0.020413
-0.020424
-0.021890
-0.021887
-0.021886
-0.021887
-0.021890
-0.021894
-0.021902
-0.021910
-0.021920
-0.023430
-0.023427
-0.023426
-0.023427
-0.023430
-0.023434
-0.023441
-0.023449
-0.023458
-0.025013
-0.025010
-0.025009
-0.025009
-0.025011
-0.025016
-0.025021
-0.025029
-0.025039
-0.026636
-0.026633
-0.026631
-0.026631
-0.026634
-0.026637
-0.026643
-0.026650
-0.026659
-0.028299
-0.028295
-0.028294
-0.028294
-0.028295
-0.028298
-0.028304
-0.028311
-0.028320
-0.030001
-0.029998
-0.029995
-0.029995
-0.029996
-0.029999
-0.030004
-0.030010
-0.030019
-0.031742
-0.031737
-0.031735
-0.031734
-0.031735
-0.031738
-0.031742
-0.031748
-0.031756
-0.033519
-0.033514
-0.033511
-0.033510
-0.033511
-0.033514
-0.033517
-0.033523
-0.033530
-0.035332
-0.035327
-0.035324
-0.035323
-0.035323
-0.035325
-0.035328
-0.035334
-0.035341
-0.037181
-0.037175
-0.037172
-0.037170
-0.037170
-0.037172
-0.037175
-0.037180
-0.037187
-0.039062
-0.039057
-0.039054
-0.039052
-0.039052
-0.039053
-0.039056
-0.039060
-0.039066
-0.040978
-0.040973
-0.040969
-0.040967
-0.040966
-0.040967
-0.040969
-0.040974
-0.040979
-0.042925
-0.042920
-0.042916
-0.042913
-0.042912
-0.042913
-0.042915
-0.042918
-0.042924
-0.044904
-0.044898
-0.044893
-0.044891
-0.044889
-0.044890
-0.044891
-0.044894
-0.044899
-0.046912
-0.046906
-0.046901
-0.046898
-0.046896
-0.046896
-0.046897
-0.046900
-0.046904
-0.048948
-0.048942
-0.048937
-0.048934
-0.048932
-0.048931
-0.048932
-0.048934
-0.048938
-0.051013
-0.051006
-0.051001
-0.050997
-0.050995
-0.050994
-0.050994
-0.050996
-0.051000
-0.053103
-0.053096
-0.053091
-0.053087
-0.053084
-0.053083
-0.053083
-0.053084
-0.053086
-0.055219
-0.055212
-0.055206
-0.055201
-0.055199
-0.055197
-0.055196
-0.055197
-0.055200
-0.057358
-0.057351
-0.057345
-0.057340
-0.057338
-0.057336
-0.057334
-0.057335
-0.057336
-0.059521
-0.059514
-0.059507
-0.059502
-0.059499
-0.059497
-0.059495
-0.059495
-0.059496
-0.061705
-0.061697
-0.061691
-0.061686
-0.061682
-0.061679
-0.061677
-0.061677
-0.061678
-0.063910
-0.063902
-0.063895
-0.063890
-0.063886
-0.063883
-0.063881
-0.063880
-0.063880
-0.066134
-0.066127
-0.066120
-0.066114
-0.066109
-0.066106
-0.066103
-0.066102
-0.066102
-0.068377
-0.068369
-0.068362
-0.068355
-0.068351
-0.068347
-0.068344
-0.068343
-0.068342
-0.070637
-0.070628
-0.070621
-0.070615
-0.070610
-0.070605
-0.070602
-0.070600
-0.070599
-0.072913
-0.072904
-0.072897
-0.072890
-0.072884
-0.072880
-0.072876
-0.072874
-0.072872
-0.075203
-0.075195
-0.075187
-0.075180
-0.075174
-0.075169
-0.075165
-0.075162
-0.075160
-0.077507
-0.077499
-0.077491
-0.077484
-0.077477
-0.077472
-0.077468
-0.077464
-0.077462
-0.079825
-0.079816
-0.079807
-0.079800
-0.079793
-0.079788
-0.079783
-0.079779
-0.079777
-0.082153
-0.082144
-0.082136
-0.082128
-0.082121
-0.082115
-0.082110
-0.082106
-0.082102
-0.084493
-0.084483
-0.084474
-0.084466
-0.084459
-0.084453
-0.084448
-0.084443
-0.084439
-0.086841
-0.086832
-0.086823
-0.086814
-0.086807
-0.086800
-0.086795
-0.086790
-0.086785
-0.089198
-0.089188
-0.089179
-0.089171
-0.089163
-0.089156
-0.089150
-0.089145
-0.089140
-0.091562
-0.091552
-0.091543
-0.091534
-0.091526
-0.091519
-0.091512
-0.091507
-0.091502
-0.093933
-0.093923
-0.093913
-0.093905
-0.093896
-0.093889
-0.093882
-0.093875
-0.093870
-0.096309
-0.096299
-0.096289
-0.096280
-0.096271
-0.096264
-0.096257
-0.096250
-0.096243
-0.098689
-0.098679
-0.098669
-0.098660
-0.098651
-0.098643
-0.098635
-0.098628
-0.098622
-0.101073
-0.101062
-0.101053
-0.101044
-0.101034
-0.101026
-0.101018
-0.101011
-0.101003
-0.103460
-0.103449
-0.103438
-0.103429