# vtk DataFile Version 2.0
Generated volume Mesh
ASCII
DATASET UNSTRUCTURED_GRID
POINTS 891 float
0.005000 0.100000 0.000000
0.005000 0.000000 0.000000
0.005000 0.001250 0.000000
0.005000 0.002500 0.000000
0.005000 0.003750 0.000000
0.005000 0.005000 0.000000
0.005000 0.006250 0.000000
0.005000 0.007500 0.000000
0.005000 0.008750 0.000000
0.005000 0.010000 0.000000
0.005000 0.011250 0.000000
0.005000 0.012500 0.000000
0.005000 0.013750 0.000000
0.005000 0.015000 0.000000
0.005000 0.016250 0.000000
0.005000 0.017500 0.000000
0.005000 0.018750 0.000000
0.005000 0.020000 0.000000
0.005000 0.021250 0.000000
0.005000 0.022500 0.000000
0.005000 0.023750 0.000000
0.005000 0.025000 0.000000
0.005000 0.026250 0.000000
0.005000 0.027500 0.000000
0.005000 0.028750 0.000000
0.005000 0.030000 0.000000
0.005000 0.031250 0.000000
0.005000 0.032500 0.000000
0.005000 0.033750 0.000000
0.005000 0.035000 0.000000
0.005000 0.036250 0.000000
0.005000 0.037500 0.000000
0.005000 0.038750 0.000000
0.005000 0.040000 0.000000
0.005000 0.041250 0.000000
0.005000 0.042500 0.000000
0.005000 0.043750 0.000000
0.005000 0.045000 0.000000
0.005000 0.046250 0.000000
0.005000 0.047500 0.000000
0.005000 0.048750 0.000000
0.005000 0.050000 0.000000
0.005000 0.051250 0.000000
0.005000 0.052500 0.000000
0.005000 0.053750 0.000000
0.005000 0.055000 0.000000
0.005000 0.056250 0.000000
0.005000 0.057500 0.000000
0.005000 0.058750 0.000000
0.005000 0.060000 0.000000
0.005000 0.061250 0.000000
0.005000 0.062500 0.000000
0.005000 0.063750 0.000000
0.005000 0.065000 0.000000
0.005000 0.066250 0.000000
0.005000 0.067500 0.000000
0.005000 0.068750 0.000000
0.005000 0.070000 0.000000
0.005000 0.071250 0.000000
0.005000 0.072500 0.000000
0.005000 0.073750 0.000000
0.005000 0.075000 0.000000
0.005000 0.076250 0.000000
0.005000 0.077500 0.000000
0.005000 0.078750 0.000000
0.005000 0.080000 0.000000
0.005000 0.081250 0.000000
0.005000 0.082500 0.000000
0.005000 0.083750 0.000000
0.005000 0.085000 0.000000
0.005000 0.086250 0.000000
0.005000 0.087500 0.000000
0.005000 0.088750 0.000000
0.005000 0.090000 0.000000
0.005000 0.091250 0.000000
0.005000 0.092500 0.000000
0.005000 0.093750 0.000000
0.005000 0.095000 0.000000
0.005000 0.096250 0.000000
0.005000 0.097500 0.000000
0.005000 0.098750 0.000000
0.000000 0.000000 0.000000
0.000000 0.100000 0.000000
0.000000 0.098750 0.000000
0.000000 0.097500 0.000000
0.000000 0.096250 0.000000
0.000000 0.095000 0.000000
0.000000 0.093750 0.000000
0.000000 0.092500 0.000000
0.000000 0.091250 0.000000
0.000000 0.090000 0.000000
0.000000 0.088750 0.000000
0.000000 0.087500 0.000000
0.000000 0.086250 0.000000
0.000000 0.085000 0.000000
0.000000 0.083750 0.000000
0.000000 0.082500 0.000000
0.000000 0.081250 0.000000
0.000000 0.080000 0.000000
0.000000 0.078750 0.000000
0.000000 0.077500 0.000000
0.000000 0.076250 0.000000
0.000000 0.075000 0.000000
0.000000 0.073750 0.000000
0.000000 0.072500 0.000000
0.000000 0.071250 0.000000
0.000000 0.070000 0.000000
0.000000 0.068750 0.000000
0.000000 0.067500 0.000000
0.000000 0.066250 0.000000
0.000000 0.065000 0.000000
0.000000 0.063750 0.000000
0.000000 0.062500 0.000000
0.000000 0.061250 0.000000
0.000000 0.060000 0.000000
0.000000 0.058750 0.000000
0.000000 0.057500 0.000000
0.000000 0.056250 0.000000
0.000000 0.055000 0.000000
0.000000 0.053750 0.000000
0.000000 0.052500 0.000000
0.000000 0.051250 0.000000
0.000000 0.050000 0.000000
0.000000 0.048750 0.000000
0.000000 0.047500 0.000000
0.000000 0.046250 0.000000
0.000000 0.045000 0.000000
0.000000 0.043750 0.000000
0.000000 0.042500 0.000000
0.000000 0.041250 0.000000
0.000000 0.040000 0.000000
0.000000 0.038750 0.000000
0.000000 0.037500 0.000000
0.000000 0.036250 0.000000
0.000000 0.035000 0.000000
0.000000 0.033750 0.000000
0.000000 0.032500 0.000000
0.000000 0.031250 0.000000
0.000000 0.030000 0.000000
0.000000 0.028750 0.000000
0.000000 0.027500 0.000000
0.000000 0.026250 0.000000
0.000000 0.025000 0.000000
0.000000 0.023750 0.000000
0.000000 0.022500 0.000000
0.000000 0.021250 0.000000
0.000000 0.020000 0.000000
0.000000 0.018750 0.000000
0.000000 0.017500 0.000000
0.000000 0.016250 0.000000
0.000000 0.015000 0.000000
0.000000 0.013750 0.000000
0.000000 0.012500 0.000000
0.000000 0.011250 0.000000
0.000000 0.010000 0.000000
0.000000 0.008750 0.000000
0.000000 0.007500 0.000000
0.000000 0.006250 0.000000
0.000000 0.005000 0.000000
0.000000 0.003750 0.000000
0.000000 0.002500 0.000000
0.000000 0.001250 0.000000
0.000500 0.000000 0.000000
0.001000 0.000000 0.000000
0.001500 0.000000 0.000000
0.002000 0.000000 0.000000
0.002500 0.000000 0.000000
0.003000 0.000000 0.000000
0.003500 0.000000 0.000000
0.004000 0.000000 0.000000
0.004500 0.000000 0.000000
0.004500 0.100000 0.000000
0.004000 0.100000 0.000000
0.003500 0.100000 0.000000
0.003000 0.100000 0.000000
0.002500 0.100000 0.000000
0.002000 0.100000 0.000000
0.001500 0.100000 0.000000
0.001000 0.100000 0.000000
0.000500 0.100000 0.000000
0.000500 0.098750 0.000000
0.001000 0.098750 0.000000
0.001500 0.098750 0.000000
0.002000 0.098750 0.000000
0.002500 0.098750 0.000000
0.003000 0.098750 0.000000
0.003500 0.098750 0.000000
0.004000 0.098750 0.000000
0.004500 0.098750 0.000000
0.000500 0.097500 0.000000
0.001000 0.097500 0.000000
0.001500 0.097500 0.000000
0.002000 0.097500 0.000000
0.002500 0.097500 0.000000
0.003000 0.097500 0.000000
0.003500 0.097500 0.000000
0.004000 0.097500 0.000000
0.004500 0.097500 0.000000
0.000500 0.096250 0.000000
0.001000 0.096250 0.000000
0.001500 0.096250 0.000000
0.002000 0.096250 0.000000
0.002500 0.096250 0.000000
0.003000 0.096250 0.000000
0.003500 0.096250 0.000000
0.004000 0.096250 0.000000
0.004500 0.096250 0.000000
0.000500 0.095000 0.000000
0.001000 0.095000 0.000000
0.001500 0.095000 0.000000
0.002000 0.095000 0.000000
0.002500 0.095000 0.000000
0.003000 0.095000 0.000000
0.003500 0.095000 0.000000
0.004000 0.095000 0.000000
0.004500 0.095000 0.000000
0.000500 0.093750 0.000000
0.001000 0.093750 0.000000
0.001500 0.093750 0.000000
0.002000 0.093750 0.000000
0.002500 0.093750 0.000000
0.003000 0.093750 0.000000
0.003500 0.093750 0.000000
0.004000 0.093750 0.000000
0.004500 0.093750 0.000000
0.000500 0.092500 0.000000
0.001000 0.092500 0.000000
0.001500 0.092500 0.000000
0.002000 0.092500 0.000000
0.002500 0.092500 0.000000
0.003000 0.092500 0.000000
0.003500 0.092500 0.000000
0.004000 0.092500 0.000000
0.004500 0.092500 0.000000
0.000500 0.091250 0.000000
0.001000 0.091250 0.000000
0.001500 0.091250 0.000000
0.002000 0.091250 0.000000
0.002500 0.091250 0.000000
0.003000 0.091250 0.000000
0.003500 0.091250 0.000000
0.004000 0.091250 0.000000
0.004500 0.091250 0.000000
0.000500 0.090000 0.000000
0.001000 0.090000 0.000000
0.001500 0.090000 0.000000
0.002000 0.090000 0.000000
0.002500 0.090000 0.000000
0.003000 0.090000 0.000000
0.003500 0.090000 0.000000
0.004000 0.090000 0.000000
0.004500 0.090000 0.000000
0.000500 0.088750 0.000000
0.001000 0.088750 0.000000
0.001500 0.088750 0.000000
0.002000 0.088750 0.000000
0.002500 0.088750 0.000000
0.003000 0.088750 0.000000
0.003500 0.088750 0.000000
0.004000 0.088750 0.000000
0.004500 0.088750 0.000000
0.000500 0.087500 0.000000
0.001000 0.087500 0.000000
0.001500 0.087500 0.000000
0.002000 0.087500 0.000000
0.002500 0.087500 0.000000
0.003000 0.087500 0.000000
0.003500 0.087500 0.000000
0.004000 0.087500 0.000000
0.004500 0.087500 0.000000
0.000500 0.086250 0.000000
0.001000 0.086250 0.000000
0.001500 0.086250 0.000000
0.002000 0.086250 0.000000
0.002500 0.086250 0.000000
0.003000 0.086250 0.000000
0.003500 0.086250 0.000000
0.004000 0.086250 0.000000
0.004500 0.086250 0.000000
0.000500 0.085000 0.000000
0.001000 0.085000 0.000000
0.001500 0.085000 0.000000
0.002000 0.085000 0.000000
0.002500 0.085000 0.000000
0.003000 0.085000 0.000000
0.003500 0.085000 0.000000
0.004000 0.085000 0.000000
0.004500 0.085000 0.000000
0.000500 0.083750 0.000000
0.001000 0.083750 0.000000
0.001500 0.083750 0.000000
0.002000 0.083750 0.000000
0.002500 0.083750 0.000000
0.003000 0.083750 0.000000
0.003500 0.083750 0.000000
0.004000 0.083750 0.000000
0.004500 0.083750 0.000000
0.000500 0.082500 0.000000
0.001000 0.082500 0.000000
0.001500 0.082500 0.000000
0.002000 0.082500 0.000000
0.002500 0.082500 0.000000
0.003000 0.082500 0.000000
0.003500 0.082500 0.000000
0.004000 0.082500 0.000000
0.004500 0.082500 0.000000
0.000500 0.081250 0.000000
0.001000 0.081250 0.000000
0.001500 0.081250 0.000000
0.002000 0.081250 0.000000
0.002500 0.081250 0.000000
0.003000 0.081250 0.000000
0.003500 0.081250 0.000000
0.004000 0.081250 0.000000
0.004500 0.081250 0.000000
0.000500 0.080000 0.000000
0.001000 0.080000 0.000000
0.001500 0.080000 0.000000
0.002000 0.080000 0.000000
0.002500 0.080000 0.000000
0.003000 0.080000 0.000000
0.003500 0.080000 0.000000
0.004000 0.080000 0.000000
0.004500 0.080000 0.000000
0.000500 0.078750 0.000000
0.001000 0.078750 0.000000
0.001500 0.078750 0.000000
0.002000 0.078750 0.000000
0.002500 0.078750 0.000000
0.003000 0.078750 0.000000
0.003500 0.078750 0.000000
0.004000 0.078750 0.000000
0.004500 0.078750 0.000000
0.000500 0.077500 0.000000
0.001000 0.077500 0.000000
0.001500 0.077500 0.000000
0.002000 0.077500 0.000000
0.002500 0.077500 0.000000
0.003000 0.077500 0.000000
0.003500 0.077500 0.000000
0.004000 0.077500 0.000000
0.004500 0.077500 0.000000
0.000500 0.076250 0.000000
0.001000 0.076250 0.000000
0.001500 0.076250 0.000000
0.002000 0.076250 0.000000
0.002500 0.076250 0.000000
0.003000 0.076250 0.000000
0.003500 0.076250 0.000000
0.004000 0.076250 0.000000
0.004500 0.076250 0.000000
0.000500 0.075000 0.000000
0.001000 0.075000 0.000000
0.001500 0.075000 0.000000
0.002000 0.075000 0.000000
0.002500 0.075000 0.000000
0.003000 0.075000 0.000000
0.003500 0.075000 0.000000
0.004000 0.075000 0.000000
0.004500 0.075000 0.000000
0.000500 0.073750 0.000000
0.001000 0.073750 0.000000
0.001500 0.073750 0.000000
0.002000 0.073750 0.000000
0.002500 0.073750 0.000000
0.003000 0.073750 0.000000
[...]
POINT_DATA 891
SCALARS u1 float
LOOKUP_TABLE default
2e-19
-3e-07
-3e-07
-3e-07
-3e-07
-3e-07
-3e-07
-3e-07
-3e-07
-3e-07
-3e-07
-3e-07
-3e-07
-3e-07
-3e-07
-3e-07
-3e-07
-3e-07
-3e-07
-3e-07
-3e-07
-3e-07
-3e-07
-3e-07
-3e-07
-3e-07
-3e-07
-3e-07
-3e-07
-3e-07
-3e-07
-3e-07
-3e-07
-3e-07
-3e-07
-3e-07
-3e-07
-3e-07
-3e-07
-3e-07
-3e-07
-3e-07
-3e-07
-3e-07
-3e-07
-3e-07
-3e-07
-3e-07
-3e-07
-3e-07
-3e-07
-3e-07
-3e-07
-3e-07
-3e-07
-3e-07
-3e-07
-3e-07
-3e-07
-3e-07
-3e-07
-3e-07
-3e-07
-3e-07
-3e-07
-3e-07
-3e-07
-3e-07
-3e-07
-3e-07
-3e-07
-3e-07
-3e-07
-3e-07
-3e-07
-4e-07
-4e-07
-4e-07
-4e-07
-3e-07
-3e-07
3e-07
-5e-19
3e-07
3e-07
4e-07
4e-07
4e-07
4e-07
3e-07
3e-07
3e-07
3e-07
3e-07
3e-07
3e-07
3e-07
3e-07
3e-07
3e-07
3e-07
3e-07
3e-07
3e-07
3e-07
3e-07
3e-07
3e-07
3e-07
3e-07
3e-07
3e-07
3e-07
3e-07
3e-07
3e-07
3e-07
3e-07
3e-07
3e-07
3e-07
3e-07
3e-07
3e-07
3e-07
3e-07
3e-07
3e-07
3e-07
3e-07
3e-07
3e-07
3e-07
3e-07
3e-07
3e-07
3e-07
3e-07
3e-07
3e-07
3e-07
3e-07
3e-07
3e-07
3e-07
3e-07
3e-07
3e-07
3e-07
3e-07
3e-07
3e-07
3e-07
3e-07
3e-07
3e-07
3e-07
3e-07
3e-07
3e-07
3e-07
3e-07
3e-07
2e-07
1e-07
7e-08
3e-16
-7e-08
-1e-07
-2e-07
-3e-07
9e-20
-4e-19
-2e-19
-2e-19
-4e-19
4e-19
6e-19
2e-19
-3e-19
2e-07
1e-07
9e-08
4e-08
4e-17
-4e-08
-9e-08
-1e-07
-2e-07
3e-07
2e-07
1e-07
7e-08
2e-16
-7e-08
-1e-07
-2e-07
-3e-07
3e-07
2e-07
1e-07
7e-08
2e-16
-7e-08
-1e-07
-2e-07
-3e-07
3e-07
2e-07
1e-07
7e-08
2e-16
-7e-08
-1e-07
-2e-07
-3e-07
3e-07
2e-07
1e-07
7e-08
2e-16
-7e-08
-1e-07
-2e-07
-3e-07
3e-07
2e-07
1e-07
7e-08
2e-16
-7e-08
-1e-07
-2e-07
-3e-07
3e-07
2e-07
1e-07
7e-08
3e-16
-7e-08
-1e-07
-2e-07
-3e-07
3e-07
2e-07
1e-07
7e-08
3e-16
-7e-08
-1e-07
-2e-07
-3e-07
3e-07
2e-07
1e-07
7e-08
3e-16
-7e-08
-1e-07
-2e-07
-3e-07
3e-07
2e-07
1e-07
7e-08
3e-16
-7e-08
-1e-07
-2e-07
-3e-07
3e-07
2e-07
1e-07
7e-08
3e-16
-7e-08
-1e-07
-2e-07
-3e-07
3e-07
2e-07
1e-07
7e-08
3e-16
-7e-08
-1e-07
-2e-07
-3e-07
3e-07
2e-07
1e-07
7e-08
3e-16
-7e-08
-1e-07
-2e-07
-3e-07
3e-07
2e-07
1e-07
7e-08
3e-16
-7e-08
-1e-07
-2e-07
-3e-07
3e-07
2e-07
1e-07
7e-08
3e-16
-7e-08
-1e-07
-2e-07
-3e-07
3e-07
2e-07
1e-07
7e-08
3e-16
-7e-08
-1e-07
-2e-07
-3e-07
3e-07
2e-07
1e-07
7e-08
3e-16
-7e-08
-1e-07
-2e-07
-3e-07
3e-07
2e-07
1e-07
7e-08
3e-16
-7e-08
-1e-07
-2e-07
-3e-07
3e-07
2e-07
1e-07
7e-08
3e-16
-7e-08
-1e-07
-2e-07
-3e-07
3e-07
2e-07
1e-07
7e-08
3e-16
-7e-08
-1e-07
-2e-07
-3e-07
3e-07
2e-07
1e-07
7e-08
3e-16
-7e-08
-1e-07
-2e-07
-3e-07
3e-07
2e-07
1e-07
7e-08
3e-16
-7e-08
-1e-07
-2e-07
-3e-07
3e-07
2e-07
1e-07
7e-08
3e-16
-7e-08
-1e-07
-2e-07
-3e-07
3e-07
2e-07
1e-07
7e-08
3e-16
-7e-08
-1e-07
-2e-07
-3e-07
3e-07
2e-07
1e-07
7e-08
3e-16
-7e-08
-1e-07
-2e-07
-3e-07
3e-07
2e-07
1e-07
7e-08
3e-16
-7e-08
-1e-07
-2e-07
-3e-07
3e-07
2e-07
1e-07
7e-08
3e-16
-7e-08
-1e-07
-2e-07
-3e-07
3e-07
2e-07
1e-07
7e-08
3e-16
-7e-08
-1e-07
-2e-07
-3e-07
3e-07
2e-07
1e-07
7e-08
3e-16
-7e-08
-1e-07
-2e-07
-3e-07
3e-07
2e-07
1e-07
7e-08
3e-16
-7e-08
-1e-07
-2e-07
-3e-07
3e-07
2e-07
1e-07
7e-08
3e-16
-7e-08
-1e-07
-2e-07
-3e-07
3e-07
2e-07
1e-07
7e-08
3e-16
-7e-08
-1e-07
-2e-07
-3e-07
3e-07
2e-07
1e-07
7e-08
3e-16
-7e-08
-1e-07
-2e-07
-3e-07
3e-07
2e-07
1e-07
7e-08
3e-16
-7e-08
-1e-07
-2e-07
-3e-07
3e-07
2e-07
1e-07
7e-08
3e-16
-7e-08
-1e-07
-2e-07
-3e-07
3e-07
2e-07
1e-07
7e-08
3e-16
-7e-08
-1e-07
-2e-07
-3e-07
3e-07
2e-07
1e-07
7e-08
3e-16
-7e-08
-1e-07
-2e-07
-3e-07
3e-07
2e-07
1e-07
7e-08
3e-16
-7e-08
-1e-07
-2e-07
-3e-07
3e-07
2e-07
1e-07
7e-08
3e-16
-7e-08
-1e-07
-2e-07
-3e-07
3e-07
2e-07
1e-07
7e-08
3e-16
-7e-08
-1e-07
-2e-07
-3e-07
3e-07
2e-07
1e-07
7e-08
3e-16
-7e-08
-1e-07
-2e-07
-3e-07
3e-07
2e-07
1e-07
7e-08
3e-16
-7e-08
-1e-07
-2e-07
-3e-07
3e-07
2e-07
1e-07
7e-08
3e-16
-7e-08
-1e-07
-2e-07
-3e-07
3e-07
2e-07
1e-07
7e-08
3e-16
-7e-08
-1e-07
-2e-07
-3e-07
3e-07
2e-07
1e-07
7e-08
3e-16
-7e-08
-1e-07
-2e-07
-3e-07
3e-07
2e-07
1e-07
7e-08
3e-16
-7e-08
-1e-07
-2e-07
-3e-07
3e-07
2e-07
1e-07
7e-08
3e-16
-7e-08
-1e-07
-2e-07
-3e-07
3e-07
2e-07
1e-07
7e-08
3e-16
-7e-08
-1e-07
-2e-07
-3e-07
3e-07
2e-07
1e-07
7e-08
3e-16
-7e-08
-1e-07
-2e-07
-3e-07
3e-07
2e-07
1e-07
7e-08
3e-16
-7e-08
-1e-07
-2e-07
-3e-07
3e-07
2e-07
1e-07
7e-08
3e-16
-7e-08
-1e-07
-2e-07
-3e-07
3e-07
2e-07
1e-07
7e-08
3e-16
-7e-08
-1e-07
-2e-07
-3e-07
3e-07
2e-07
1e-07
7e-08
3e-16
-7e-08
-1e-07
-2e-07
-3e-07
3e-07
2e-07
1e-07
7e-08
3e-16
-7e-08
-1e-07
-2e-07
-3e-07
3e-07
2e-07
1e-07
7e-08
3e-16
-7e-08
-1e-07
-2e-07
-3e-07
3e-07
2e-07
1e-07
7e-08
3e-16
-7e-08
-1e-07
-2e-07
-3e-07
3e-07
2e-07
1e-07
7e-08
3e-16
-7e-08
-1e-07
-2e-07
-3e-07
3e-07
2e-07
1e-07
7e-08
3e-16
-7e-08
-1e-07
-2e-07
-3e-07
3e-07
2e-07
1e-07
7e-08
3e-16
-7e-08
-1e-07
-2e-07
-3e-07
3e-07
2e-07
1e-07
7e-08
3e-16
-7e-08
-1e-07
-2e-07
-3e-07
3e-07
2e-07
1e-07
7e-08
3e-16
-7e-08
-1e-07
-2e-07
-3e-07
3e-07
2e-07
1e-07
7e-08
3e-16
-7e-08
-1e-07
-2e-07
-3e-07
3e-07
2e-07
1e-07
7e-08
3e-16
-7e-08
-1e-07
-2e-07
-3e-07
3e-07
2e-07
1e-07
7e-08
3e-16
-7e-08
-1e-07
-2e-07
-3e-07
3e-07
2e-07
1e-07
7e-08
3e-16
-7e-08
-1e-07
-2e-07
-3e-07
3e-07
2e-07
1e-07
7e-08
3e-16
-7e-08
-1e-07
-2e-07
-3e-07
3e-07
2e-07
1e-07
7e-08
3e-16
-7e-08
-1e-07
-2e-07
-3e-07
3e-07
2e-07
1e-07
7e-08
3e-16
-7e-08
-1e-07
-2e-07
-3e-07
3e-07
2e-07
1e-07
7e-08
3e-16
-7e-08
-1e-07
-2e-07
-3e-07
3e-07
2e-07
1e-07
7e-08
3e-16
-7e-08
-1e-07
-2e-07
-3e-07
3e-07
2e-07
1e-07
7e-08
3e-16
-7e-08
-1e-07
-2e-07
-3e-07
3e-07
2e-07
1e-07
7e-08
3e-16
-7e-08
-1e-07
-2e-07
-3e-07
3e-07
2e-07
1e-07
7e-08
3e-16
-7e-08
-1e-07
-2e-07
-3e-07
3e-07
2e-07
1e-07
7e-08
3e-16
-7e-08
-1e-07
-2e-07
-3e-07
3e-07
2e-07
1e-07
7e-08
3e-16
-7e-08
-1e-07
-2e-07
-3e-07
3e-07
2e-07
1e-07
7e-08
3e-16
-7e-08
-1e-07
-2e-07
-3e-07
3e-07
2e-07
1e-07
7e-08
3e-16
-7e-08
-1e-07
-2e-07
-3e-07
3e-07
2e-07
1e-07
7e-08
3e-16
-7e-08
-1e-07
-2e-07
-3e-07
3e-07
2e-07
1e-07
7e-08
3e-16
-7e-08
-1e-07
-2e-07
-3e-07
SCALARS u2 float
LOOKUP_TABLE default
-3e-19
-0.0001
-0.0001
-0.0001
-0.0001
-0.0001
-9e-05
-9e-05
-9e-05
-9e-05
-9e-05
-9e-05
-9e-05
-9e-05
-8e-05
-8e-05
-8e-05
-8e-05
-8e-05
-8e-05
-8e-05
-8e-05
-7e-05
-7e-05
-7e-05
-7e-05
-7e-05
-7e-05
-7e-05
-7e-05
-6e-05
-6e-05
-6e-05
-6e-05
-6e-05
-6e-05
-6e-05
-6e-05
-5e-05
-5e-05
-5e-05
-5e-05
-5e-05
-5e-05
-5e-05
-5e-05
-4e-05
-4e-05
-4e-05
-4e-05
-4e-05
-4e-05
-4e-05
-4e-05
-3e-05
-3e-05
-3e-05
-3e-05
-3e-05
-3e-05
-3e-05
-3e-05
-2e-05
-2e-05
-2e-05
-2e-05
-2e-05
-2e-05
-2e-05
-2e-05
-1e-05
-1e-05
-1e-05
-1e-05
-9e-06
-8e-06
-6e-06
-5e-06
-4e-06
-3e-06
-1e-06
-0.0001
2e-19
-1e-06
-3e-06
-4e-06
-5e-06
-6e-06
-8e-06
-9e-06
-1e-05
-1e-05
-1e-05
-1e-05
-2e-05
-2e-05
-2e-05
-2e-05
-2e-05
-2e-05
-2e-05
-2e-05
-3e-05
-3e-05
-3e-05
-3e-05
-3e-05
-3e-05
-3e-05
-3e-05
-4e-05
-4e-05
-4e-05
-4e-05
-4e-05
-4e-05
-4e-05
-4e-05
-5e-05
-5e-05
-5e-05
-5e-05
-5e-05
-5e-05
-5e-05
-5e-05
-6e-05
-6e-05
-6e-05
-6e-05
-6e-05
-6e-05
-6e-05
-6e-05
-7e-05
-7e-05
-7e-05
-7e-05
-7e-05
-7e-05
-7e-05
-7e-05
-8e-05
-8e-05
-8e-05
-8e-05
-8e-05
-8e-05
-8e-05
-8e-05
-9e-05
-9e-05
-9e-05
-9e-05
-9e-05
-9e-05
-9e-05
-9e-05
-0.0001
-0.0001
-0.0001
-0.0001
-0.0001
-0.0001
-0.0001
-0.0001
-0.0001
-0.0001
-0.0001
-0.0001
-0.0001
-6e-19
4e-20
-9e-20
-7e-19
-1e-19
2e-19
5e-20
2e-19
-2e-19
-1e-06
-1e-06
-1e-06
-1e-06
-1e-06
-1e-06
-1e-06
-1e-06
-1e-06
-3e-06
-3e-06
-2e-06
-2e-06
-2e-06
-2e-06
-2e-06
-3e-06
-3e-06
-4e-06
-4e-06
-4e-06
-4e-06
-4e-06
-4e-06
-4e-06
-4e-06
-4e-06
-5e-06
-5e-06
-5e-06
-5e-06
-5e-06
-5e-06
-5e-06
-5e-06
-5e-06
-6e-06
-6e-06
-6e-06
-6e-06
-6e-06
-6e-06
-6e-06
-6e-06
-6e-06
-8e-06
-8e-06
-8e-06
-8e-06
-8e-06
-8e-06
-8e-06
-8e-06
-8e-06
-9e-06
-9e-06
-9e-06
-9e-06
-9e-06
-9e-06
-9e-06
-9e-06
-9e-06
-1e-05
-1e-05
-1e-05
-1e-05
-1e-05
-1e-05
-1e-05
-1e-05
-1e-05
-1e-05
-1e-05
-1e-05
-1e-05
-1e-05
-1e-05
-1e-05
-1e-05
-1e-05
-1e-05
-1e-05
-1e-05
-1e-05
-1e-05
-1e-05
-1e-05
-1e-05
-1e-05
-1e-05
-1e-05
-1e-05
-1e-05
-1e-05
-1e-05
-1e-05
-1e-05
-1e-05
-2e-05
-2e-05
-2e-05
-2e-05
-2e-05
-2e-05
-2e-05
-2e-05
-2e-05
-2e-05
-2e-05
-2e-05
-2e-05
-2e-05
-2e-05
-2e-05
-2e-05
-2e-05
-2e-05
-2e-05
-2e-05
-2e-05
-2e-05
-2e-05
-2e-05
-2e-05
-2e-05
-2e-05
-2e-05
-2e-05
-2e-05
-2e-05
-2e-05
-2e-05
-2e-05
-2e-05
-2e-05
-2e-05
-2e-05
-2e-05
-2e-05
-2e-05
-2e-05
-2e-05
-2e-05
-2e-05
-2e-05
-2e-05
-2e-05
-2e-05
-2e-05
-2e-05
-2e-05
-2e-05
-2e-05
-2e-05
-2e-05
-2e-05
-2e-05
-2e-05
-2e-05
-2e-05
-2e-05
-2e-05
-2e-05
-2e-05
-2e-05
-2e-05
-2e-05
-2e-05
-2e-05
-2e-05
-3e-05
-3e-05
-3e-05
-3e-05
-3e-05
-3e-05
-3e-05
-3e-05
-3e-05
-3e-05
-3e-05
-3e-05
-3e-05
-3e-05
-3e-05
-3e-05
-3e-05
-3e-05
-3e-05
-3e-05
-3e-05
-3e-05
-3e-05
-3e-05
-3e-05
-3e-05
-3e-05
-3e-05
-3e-05
-3e-05
-3e-05
-3e-05
-3e-05
-3e-05
-3e-05
-3e-05
-3e-05
-3e-05
-3e-05
-3e-05
-3e-05
-3e-05
-3e-05
-3e-05
-3e-05
-3e-05
-3e-05
-3e-05
-3e-05
-3e-05
-3e-05
-3e-05
-3e-05
-3e-05
-3e-05
-3e-05
-3e-05
-3e-05
-3e-05
-3e-05
-3e-05
-3e-05
-3e-05
-3e-05
-3e-05
-3e-05
-3e-05
-3e-05
-3e-05
-3e-05
-3e-05
-3e-05
-4e-05
-4e-05
-4e-05
-4e-05
-4e-05
-4e-05
-4e-05
-4e-05
-4e-05
-4e-05
-4e-05
-4e-05
-4e-05
-4e-05
-4e-05
-4e-05
-4e-05
-4e-05
-4e-05
-4e-05
-4e-05
-4e-05
-4e-05
-4e-05
-4e-05
-4e-05
-4e-05
-4e-05
-4e-05
-4e-05
-4e-05
-4e-05
-4e-05
-4e-05
-4e-05
-4e-05
-4e-05
-4e-05
-4e-05
-4e-05
-4e-05
-4e-05
-4e-05
-4e-05
-4e-05
-4e-05
-4e-05
-4e-05
-4e-05
-4e-05
-4e-05
-4e-05
-4e-05
-4e-05
-4e-05
-4e-05
-4e-05
-4e-05
-4e-05
-4e-05
-4e-05
-4e-05
-4e-05
-4e-05
-4e-05
-4e-05
-4e-05
-4e-05
-4e-05
-4e-05
-4e-05
-4e-05
-5e-05
-5e-05
-5e-05
-5e-05
-5e-05
-5e-05
-5e-05
-5e-05
-5e-05
-5e-05
-5e-05
-5e-05
-5e-05
-5e-05
-5e-05
-5e-05
-5e-05
-5e-05
-5e-05
-5e-05
-5e-05
-5e-05
-5e-05
-5e-05
-5e-05
-5e-05
-5e-05
-5e-05
-5e-05
-5e-05
-5e-05
-5e-05
-5e-05
-5e-05
-5e-05
-5e-05
-5e-05
-5e-05
-5e-05
-5e-05
-5e-05
-5e-05
-5e-05
-5e-05
-5e-05
-5e-05
-5e-05
-5e-05
-5e-05
-5e-05
-5e-05
-5e-05
-5e-05
-5e-05
-5e-05
-5e-05
-5e-05
-5e-05
-5e-05
-5e-05
-5e-05
-5e-05
-5e-05
-5e-05
-5e-05
-5e-05
-5e-05
-5e-05
-5e-05
-5e-05
-5e-05
-5e-05
-6e-05
-6e-05
-6e-05
-6e-05
-6e-05
-6e-05
-6e-05
-6e-05
-6e-05
-6e-05
-6e-05
-6e-05
-6e-05
-6e-05
-6e-05
-6e-05
-6e-05
-6e-05
-6e-05
-6e-05
-6e-05
-6e-05
-6e-05
-6e-05
-6e-05
-6e-05
-6e-05
-6e-05
-6e-05
-6e-05
-6e-05
-6e-05
-6e-05
-6e-05
-6e-05
-6e-05
-6e-05
-6e-05
-6e-05
-6e-05
-6e-05
-6e-05
-6e-05
-6e-05
-6e-05
-6e-05
-6e-05
-6e-05
-6e-05
-6e-05
-6e-05
-6e-05
-6e-05
-6e-05
-6e-05
-6e-05
-6e-05
-6e-05
-6e-05
-6e-05
-6e-05
-6e-05
-6e-05
-6e-05
-6e-05
-6e-05
-6e-05
-6e-05
-6e-05
-6e-05
-6e-05
-6e-05
-7e-05
-7e-05
-7e-05
-7e-05
-7e-05
-7e-05
-7e-05
-7e-05
-7e-05
-7e-05
-7e-05
-7e-05
-7e-05
-7e-05
-7e-05
-7e-05
-7e-05
-7e-05
-7e-05
-7e-05
-7e-05
-7e-05
-7e-05
-7e-05
-7e-05
-7e-05
-7e-05
-7e-05
-7e-05
-7e-05
-7e-05
-7e-05
-7e-05
-7e-05
-7e-05
-7e-05
-7e-05
-7e-05
-7e-05
-7e-05
-7e-05
-7e-05
-7e-05
-7e-05
-7e-05
-7e-05
-7e-05
-7e-05
-7e-05
-7e-05
-7e-05
-7e-05
-7e-05
-7e-05
-7e-05
-7e-05
-7e-05
-7e-05
-7e-05
-7e-05
-7e-05
-7e-05
-7e-05
-7e-05
-7e-05
-7e-05
-7e-05
-7e-05
-7e-05
-7e-05
-7e-05
-7e-05
-8e-05
-8e-05
-8e-05
-8e-05
-8e-05
-8e-05
-8e-05
-8e-05
-8e-05
-8e-05
-8e-05
-8e-05
-8e-05
-8e-05
-8e-05
-8e-05
-8e-05
-8e-05
-8e-05
-8e-05
-8e-05
-8e-05
-8e-05
-8e-05
-8e-05
-8e-05
-8e-05
-8e-05
-8e-05
-8e-05
-8e-05
-8e-05
-8e-05
-8e-05
-8e-05
-8e-05
-8e-05
-8e-05
-8e-05
-8e-05
-8e-05
-8e-05
-8e-05
-8e-05
-8e-05
-8e-05
-8e-05
-8e-05
-8e-05
-8e-05
-8e-05
-8e-05
-8e-05
-8e-05
-8e-05
-8e-05
-8e-05
-8e-05
-8e-05
-8e-05
-8e-05
-8e-05
-8e-05
-8e-05
-8e-05
-8e-05
-8e-05
-8e-05
-8e-05
-8e-05
-8e-05
-8e-05
-9e-05
-9e-05
-9e-05
-9e-05
-9e-05
-9e-05
-9e-05
-9e-05
-9e-05
-9e-05
-9e-05
-9e-05
-9e-05
-9e-05
-9e-05
-9e-05
-9e-05
-9e-05
-9e-05
-9e-05
-9e-05
-9e-05
-9e-05
-9e-05
-9e-05
-9e-05
-9e-05
-9e-05
-9e-05
-9e-05
-9e-05
-9e-05
-9e-05
-9e-05
-9e-05
-9e-05
-9e-05
-9e-05
-9e-05
-9e-05
-9e-05
-9e-05
-9e-05
-9e-05
-9e-05
-9e-05
-9e-05
-9e-05
-9e-05
-9e-05
-9e-05
-9e-05
-9e-05
-9e-05
-9e-05
-9e-05
-9e-05
-9e-05
-9e-05
-9e-05
-9e-05
-9e-05
-9e-05
-9e-05
-9e-05
-9e-05
-9e-05
-9e-05
-9e-05
-9e-05
-9e-05
-9e-05
-0.0001
-0.0001
-0.0001
-0.0001
-0.0001
-0.0001
-0.0001
-0.0001
-0.0001
-0.0001
-0.0001
-0.0001
-0.0001
-0.0001
-0.0001
-0.0001
-0.0001
-0.0001
-0.0001
-0.0001
-0.0001
-0.0001
-0.0001
-0.0001
-0.0001
-0.0001
-0.0001
-0.0001
-0.0001
-0.0001
-0.0001
-0.0001
-0.0001
-0.0001
-0.0001
-0.0001
SCALARS strain_1 float
LOOKUP_TABLE default
-0.000026
-0.040877
-0.040258
-0.039637
-0.039013
-0.038386
-0.037756
-0.037124
-0.036489
-0.035852
-0.035213
-0.034573
-0.033930
-0.033286
-0.032641
-0.031995
-0.031347
-0.030700
-0.030051
-0.029402
-0.028754
-0.028105
-0.027457
-0.026810
-0.026163
-0.025518
-0.024874
-0.024232
-0.023592
-0.022954
-0.022319
-0.021687
-0.021058
-0.020432
-0.019810
-0.019192
-0.018579
-0.017970
-0.017366
-0.016768
-0.016175
-0.015588
-0.015007
-0.014433
-0.013865
-0.013305
-0.012752
-0.012207
-0.011670
-0.011142
-0.010622
-0.010111
-0.009609
-0.009117
-0.008635
-0.008163
-0.007701
-0.007250
-0.006809
-0.006380
-0.005962
-0.005555
-0.005160
-0.004777
-0.004406
-0.004047
-0.003701
-0.003367
-0.003045
-0.002736
-0.002440
-0.002156
-0.001886
-0.001628
-0.001383
-0.001151
-0.000932
-0.000725
-0.000532
-0.000350
-0.000182
-0.040913
-0.000001
-0.000158
-0.000327
-0.000508
-0.000703
-0.000910
-0.001129
-0.001362
-0.001608
-0.001866
-0.002137
-0.002421
-0.002718
-0.003028
-0.003350
-0.003685
-0.004032
-0.004392
-0.004764
-0.005148
-0.005544
-0.005951
-0.006370
-0.006801
-0.007242
-0.007694
-0.008157
-0.008630
-0.009113
-0.009606
-0.010109
-0.010621
-0.011141
-0.011671
-0.012209
-0.012755
-0.013308
-0.013870
-0.014438
-0.015013
-0.015595
-0.016183
-0.016777
-0.017376
-0.017981
-0.018591
-0.019205
-0.019824
-0.020447
-0.021074
-0.021703
-0.022337
-0.022973
-0.023611
-0.024252
-0.024895
-0.025539
-0.026185
-0.026832
-0.027481
-0.028130
-0.028779
-0.029428
-0.030078
-0.030727
-0.031376
-0.032023
-0.032670
-0.033316
-0.033961
-0.034604
-0.035245
-0.035885
-0.036522
-0.037157
-0.037790
-0.038420
-0.039048
-0.039672
-0.040294
-0.040909
-0.040906
-0.040902
-0.040899
-0.040895
-0.040892
-0.040888
-0.040884
-0.040880
-0.000021
-0.000016
-0.000013
-0.000009
-0.000007
-0.000004
-0.000003
-0.000002
-0.000001
-0.000158
-0.000158
-0.000159
-0.000161
-0.000163
-0.000166
-0.000169
-0.000173
-0.000177
-0.000327
-0.000327
-0.000328
-0.000330
-0.000332
-0.000335
-0.000338
-0.000342
-0.000346
-0.000508
-0.000509
-0.000510
-0.000511
-0.000513
-0.000516
-0.000519
-0.000523
-0.000527
-0.000703
-0.000703
-0.000704
-0.000705
-0.000707
-0.000710
-0.000713
-0.000717
-0.000721
-0.000909
-0.000910
-0.000911
-0.000912
-0.000914
-0.000916
-0.000920
-0.000923
-0.000927
-0.001129
-0.001129
-0.001130
-0.001132
-0.001133
-0.001136
-0.001139
-0.001142
-0.001146
-0.001362
-0.001362
-0.001363
-0.001364
-0.001366
-0.001368
-0.001371
-0.001375
-0.001379
-0.001607
-0.001607
-0.001608
-0.001609
-0.001611
-0.001613
-0.001616
-0.001620
-0.001624
-0.001865
-0.001866
-0.001866
-0.001867
-0.001869
-0.001871
-0.001874
-0.001877
-0.001881
-0.002137
-0.002137
-0.002137
-0.002138
-0.002140
-0.002142
-0.002145
-0.002148
-0.002152
-0.002421
-0.002421
-0.002421
-0.002422
-0.002424
-0.002426
-0.002428
-0.002432
-0.002435
-0.002718
-0.002717
-0.002718
-0.002719
-0.002720
-0.002722
-0.002725
-0.002728
-0.002732
-0.003027
-0.003027
-0.003027
-0.003028
-0.003030
-0.003032
-0.003034
-0.003037
-0.003041
-0.003349
-0.003349
-0.003349
-0.003350
-0.003352
-0.003353
-0.003356
-0.003359
-0.003362
-0.003684
-0.003684
-0.003684
-0.003685
-0.003686
-0.003688
-0.003690
-0.003693
-0.003697
-0.004031
-0.004031
-0.004031
-0.004032
-0.004033
-0.004035
-0.004037
-0.004040
-0.004043
-0.004391
-0.004391
-0.004391
-0.004391
-0.004393
-0.004394
-0.004396
-0.004399
-0.004402
-0.004763
-0.004762
-0.004762
-0.004763
-0.004764
-0.004766
-0.004768
-0.004770
-0.004773
-0.005147
-0.005146
-0.005146
-0.005147
-0.005148
-0.005149
-0.005151
-0.005154
-0.005157
-0.005543
-0.005542
-0.005542
-0.005542
-0.005543
-0.005544
-0.005546
-0.005549
-0.005552
-0.005950
-0.005949
-0.005949
-0.005949
-0.005950
-0.005951
-0.005953
-0.005956
-0.005958
-0.006369
-0.006368
-0.006368
-0.006368
-0.006369
-0.006370
-0.006372
-0.006374
-0.006377
-0.006799
-0.006798
-0.006798
-0.006798
-0.006799
-0.006800
-0.006801
-0.006804
-0.006806
-0.007241
-0.007240
-0.007239
-0.007239
-0.007240
-0.007241
-0.007242
-0.007244
-0.007247
-0.007693
-0.007692
-0.007691
-0.007691
-0.007692
-0.007692
-0.007694
-0.007696
-0.007698
-0.008155
-0.008154
-0.008154
-0.008154
-0.008154
-0.008155
-0.008156
-0.008158
-0.008160
-0.008628
-0.008627
-0.008627
-0.008626
-0.008627
-0.008627
-0.008629
-0.008630
-0.008632
-0.009112
-0.009110
-0.009109
-0.009109
-0.009109
-0.009110
-0.009111
-0.009113
-0.009115
-0.009605
-0.009603
-0.009602
-0.009602
-0.009602
-0.009603
-0.009604
-0.009605
-0.009607
-0.010107
-0.010106
-0.010105
-0.010104
-0.010104
-0.010105
-0.010106
-0.010107
-0.010109
-0.010619
-0.010617
-0.010616
-0.010616
-0.010616
-0.010616
-0.010617
-0.010618
-0.010620
-0.011139
-0.011138
-0.011137
-0.011136
-0.011136
-0.011136
-0.011137
-0.011138
-0.011140
-0.011669
-0.011667
-0.011666
-0.011666
-0.011665
-0.011665
-0.011666
-0.011667
-0.011668
-0.012207
-0.012205
-0.012204
-0.012203
-0.012203
-0.012203
-0.012203
-0.012204
-0.012205
-0.012753
-0.012751
-0.012750
-0.012749
-0.012748
-0.012748
-0.012749
-0.012749
-0.012751
-0.013306
-0.013305
-0.013303
-0.013302
-0.013302
-0.013302
-0.013302
-0.013302
-0.013304
-0.013868
-0.013866
-0.013864
-0.013863
-0.013863
-0.013862
-0.013862
-0.013863
-0.013864
-0.014436
-0.014434
-0.014432
-0.014431
-0.014431
-0.014430
-0.014430
-0.014431
-0.014431
-0.015011
-0.015009
-0.015008
-0.015006
-0.015005
-0.015005
-0.015005
-0.015005
-0.015006
-0.015593
-0.015591
-0.015589
-0.015588
-0.015587
-0.015586
-0.015586
-0.015586
-0.015587
-0.016181
-0.016179
-0.016177
-0.016176
-0.016175
-0.016174
-0.016174
-0.016174
-0.016174
-0.016774
-0.016772
-0.016771
-0.016769
-0.016768
-0.016767
-0.016767
-0.016767
-0.016767
-0.017374
-0.017372
-0.017370
-0.017369
-0.017367
-0.017366
-0.017366
-0.017366
-0.017366
-0.017979
-0.017976
-0.017975
-0.017973
-0.017972
-0.017971
-0.017970
-0.017970
-0.017970
-0.018588
-0.018586
-0.018584
-0.018582
-0.018581
-0.018580
-0.018579
-0.018579
-0.018579
-0.019203
-0.019200
-0.019198
-0.019197
-0.019195
-0.019194
-0.019193
-0.019193
-0.019192
-0.019821
-0.019819
-0.019817
-0.019815
-0.019814
-0.019812
-0.019812
-0.019811
-0.019810
-0.020444
-0.020442
-0.020440
-0.020438
-0.020436
-0.020435
-0.020434
-0.020433
-0.020432
-0.021071
-0.021068
-0.021066
-0.021064
-0.021062
-0.021061
-0.021060
-0.021059
-0.021058
-0.021701
-0.021698
-0.021696
-0.021694
-0.021692
-0.021691
-0.021689
-0.021688
-0.021688
-0.022334
-0.022331
-0.022329
-0.022327
-0.022325
-0.022323
-0.022322
-0.022321
-0.022320
-0.022970
-0.022967
-0.022965
-0.022963
-0.022961
-0.022959
-0.022958
-0.022956
-0.022955
-0.023608
-0.023606
-0.023603
-0.023601
-0.023599
-0.023597
-0.023596
-0.023594
-0.023593
-0.024249
-0.024246
-0.024244
-0.024242
-0.024240
-0.024238
-0.024236
-0.024235
-0.024233
-0.024892
-0.024889
-0.024887
-0.024884
-0.024882
-0.024880
-0.024878
-0.024877
-0.024875
-0.025536
-0.025534
-0.025531
-0.025529
-0.025526
-0.025524
-0.025522
-0.025521
-0.025519
-0.026182
-0.026180
-0.026177
-0.026175
-0.026172
-0.026170
-0.026168
-0.026166
-0.026165
-0.026830
-0.026827
-0.026824
-0.026822
-0.026819
-0.026817
-0.026815
-0.026813
-0.026811
-0.027478
-0.027475
-0.027472
-0.027470
-0.027467
-0.027465
-0.027463
-0.027461
-0.027459
-0.028127
-0.028124
-0.028121
-0.028118
-0.028116
-0.028113
-0.028111
-0.028109
-0.028107
-0.028776
-0.028773
-0.028770
-0.028767
-0.028765
-0.028762
-0.028760
-0.028758
-0.028756
-0.029425
-0.029422
-0.029419
-0.029417
-0.029414
-0.029411
-0.029409
-0.029407
-0.029404
-0.030075
-0.030072
-0.030069
-0.030066
-0.030063
-0.030060
-0.030058
-0.030056
-0.030053
-0.030724
-0.030721
-0.030718
-0.030715
-0.030712
-0.030709
-0.030707
-0.030704
-0.030702
-0.031372
-0.031369
-0.031366
-0.031363
-0.031361
-0.031358
-0.031355
-0.031352
-0.031350
-0.032020
-0.032017
-0.032014
-0.032011
-0.032008
-0.032005
-0.032003
-0.032000
-0.031997
-0.032667
-0.032664
-0.032661
-0.032658
-0.032655
-0.032652
-0.032649
-0.032647