# vtk DataFile Version 2.0
Generated volume Mesh
ASCII
DATASET UNSTRUCTURED_GRID
POINTS 891 float
0.005000 0.100000 0.000000
0.005000 0.000000 0.000000
0.005000 0.001250 0.000000
0.005000 0.002500 0.000000
0.005000 0.003750 0.000000
0.005000 0.005000 0.000000
0.005000 0.006250 0.000000
0.005000 0.007500 0.000000
0.005000 0.008750 0.000000
0.005000 0.010000 0.000000
0.005000 0.011250 0.000000
0.005000 0.012500 0.000000
0.005000 0.013750 0.000000
0.005000 0.015000 0.000000
0.005000 0.016250 0.000000
0.005000 0.017500 0.000000
0.005000 0.018750 0.000000
0.005000 0.020000 0.000000
0.005000 0.021250 0.000000
0.005000 0.022500 0.000000
0.005000 0.023750 0.000000
0.005000 0.025000 0.000000
0.005000 0.026250 0.000000
0.005000 0.027500 0.000000
0.005000 0.028750 0.000000
0.005000 0.030000 0.000000
0.005000 0.031250 0.000000
0.005000 0.032500 0.000000
0.005000 0.033750 0.000000
0.005000 0.035000 0.000000
0.005000 0.036250 0.000000
0.005000 0.037500 0.000000
0.005000 0.038750 0.000000
0.005000 0.040000 0.000000
0.005000 0.041250 0.000000
0.005000 0.042500 0.000000
0.005000 0.043750 0.000000
0.005000 0.045000 0.000000
0.005000 0.046250 0.000000
0.005000 0.047500 0.000000
0.005000 0.048750 0.000000
0.005000 0.050000 0.000000
0.005000 0.051250 0.000000
0.005000 0.052500 0.000000
0.005000 0.053750 0.000000
0.005000 0.055000 0.000000
0.005000 0.056250 0.000000
0.005000 0.057500 0.000000
0.005000 0.058750 0.000000
0.005000 0.060000 0.000000
0.005000 0.061250 0.000000
0.005000 0.062500 0.000000
0.005000 0.063750 0.000000
0.005000 0.065000 0.000000
0.005000 0.066250 0.000000
0.005000 0.067500 0.000000
0.005000 0.068750 0.000000
0.005000 0.070000 0.000000
0.005000 0.071250 0.000000
0.005000 0.072500 0.000000
0.005000 0.073750 0.000000
0.005000 0.075000 0.000000
0.005000 0.076250 0.000000
0.005000 0.077500 0.000000
0.005000 0.078750 0.000000
0.005000 0.080000 0.000000
0.005000 0.081250 0.000000
0.005000 0.082500 0.000000
0.005000 0.083750 0.000000
0.005000 0.085000 0.000000
0.005000 0.086250 0.000000
0.005000 0.087500 0.000000
0.005000 0.088750 0.000000
0.005000 0.090000 0.000000
0.005000 0.091250 0.000000
0.005000 0.092500 0.000000
0.005000 0.093750 0.000000
0.005000 0.095000 0.000000
0.005000 0.096250 0.000000
0.005000 0.097500 0.000000
0.005000 0.098750 0.000000
0.000000 0.000000 0.000000
0.000000 0.100000 0.000000
0.000000 0.098750 0.000000
0.000000 0.097500 0.000000
0.000000 0.096250 0.000000
0.000000 0.095000 0.000000
0.000000 0.093750 0.000000
0.000000 0.092500 0.000000
0.000000 0.091250 0.000000
0.000000 0.090000 0.000000
0.000000 0.088750 0.000000
0.000000 0.087500 0.000000
0.000000 0.086250 0.000000
0.000000 0.085000 0.000000
0.000000 0.083750 0.000000
0.000000 0.082500 0.000000
0.000000 0.081250 0.000000
0.000000 0.080000 0.000000
0.000000 0.078750 0.000000
0.000000 0.077500 0.000000
0.000000 0.076250 0.000000
0.000000 0.075000 0.000000
0.000000 0.073750 0.000000
0.000000 0.072500 0.000000
0.000000 0.071250 0.000000
0.000000 0.070000 0.000000
0.000000 0.068750 0.000000
0.000000 0.067500 0.000000
0.000000 0.066250 0.000000
0.000000 0.065000 0.000000
0.000000 0.063750 0.000000
0.000000 0.062500 0.000000
0.000000 0.061250 0.000000
0.000000 0.060000 0.000000
0.000000 0.058750 0.000000
0.000000 0.057500 0.000000
0.000000 0.056250 0.000000
0.000000 0.055000 0.000000
0.000000 0.053750 0.000000
0.000000 0.052500 0.000000
0.000000 0.051250 0.000000
0.000000 0.050000 0.000000
0.000000 0.048750 0.000000
0.000000 0.047500 0.000000
0.000000 0.046250 0.000000
0.000000 0.045000 0.000000
0.000000 0.043750 0.000000
0.000000 0.042500 0.000000
0.000000 0.041250 0.000000
0.000000 0.040000 0.000000
0.000000 0.038750 0.000000
0.000000 0.037500 0.000000
0.000000 0.036250 0.000000
0.000000 0.035000 0.000000
0.000000 0.033750 0.000000
0.000000 0.032500 0.000000
0.000000 0.031250 0.000000
0.000000 0.030000 0.000000
0.000000 0.028750 0.000000
0.000000 0.027500 0.000000
0.000000 0.026250 0.000000
0.000000 0.025000 0.000000
0.000000 0.023750 0.000000
0.000000 0.022500 0.000000
0.000000 0.021250 0.000000
0.000000 0.020000 0.000000
0.000000 0.018750 0.000000
0.000000 0.017500 0.000000
0.000000 0.016250 0.000000
0.000000 0.015000 0.000000
0.000000 0.013750 0.000000
0.000000 0.012500 0.000000
0.000000 0.011250 0.000000
0.000000 0.010000 0.000000
0.000000 0.008750 0.000000
0.000000 0.007500 0.000000
0.000000 0.006250 0.000000
0.000000 0.005000 0.000000
0.000000 0.003750 0.000000
0.000000 0.002500 0.000000
0.000000 0.001250 0.000000
0.000500 0.000000 0.000000
0.001000 0.000000 0.000000
0.001500 0.000000 0.000000
0.002000 0.000000 0.000000
0.002500 0.000000 0.000000
0.003000 0.000000 0.000000
0.003500 0.000000 0.000000
0.004000 0.000000 0.000000
0.004500 0.000000 0.000000
0.004500 0.100000 0.000000
0.004000 0.100000 0.000000
0.003500 0.100000 0.000000
0.003000 0.100000 0.000000
0.002500 0.100000 0.000000
0.002000 0.100000 0.000000
0.001500 0.100000 0.000000
0.001000 0.100000 0.000000
0.000500 0.100000 0.000000
0.000500 0.098750 0.000000
0.001000 0.098750 0.000000
0.001500 0.098750 0.000000
0.002000 0.098750 0.000000
0.002500 0.098750 0.000000
0.003000 0.098750 0.000000
0.003500 0.098750 0.000000
0.004000 0.098750 0.000000
0.004500 0.098750 0.000000
0.000500 0.097500 0.000000
0.001000 0.097500 0.000000
0.001500 0.097500 0.000000
0.002000 0.097500 0.000000
0.002500 0.097500 0.000000
0.003000 0.097500 0.000000
0.003500 0.097500 0.000000
0.004000 0.097500 0.000000
0.004500 0.097500 0.000000
0.000500 0.096250 0.000000
0.001000 0.096250 0.000000
0.001500 0.096250 0.000000
0.002000 0.096250 0.000000
0.002500 0.096250 0.000000
0.003000 0.096250 0.000000
0.003500 0.096250 0.000000
0.004000 0.096250 0.000000
0.004500 0.096250 0.000000
0.000500 0.095000 0.000000
0.001000 0.095000 0.000000
0.001500 0.095000 0.000000
0.002000 0.095000 0.000000
0.002500 0.095000 0.000000
0.003000 0.095000 0.000000
0.003500 0.095000 0.000000
0.004000 0.095000 0.000000
0.004500 0.095000 0.000000
0.000500 0.093750 0.000000
0.001000 0.093750 0.000000
0.001500 0.093750 0.000000
0.002000 0.093750 0.000000
0.002500 0.093750 0.000000
0.003000 0.093750 0.000000
0.003500 0.093750 0.000000
0.004000 0.093750 0.000000
0.004500 0.093750 0.000000
0.000500 0.092500 0.000000
0.001000 0.092500 0.000000
0.001500 0.092500 0.000000
0.002000 0.092500 0.000000
0.002500 0.092500 0.000000
0.003000 0.092500 0.000000
0.003500 0.092500 0.000000
0.004000 0.092500 0.000000
0.004500 0.092500 0.000000
0.000500 0.091250 0.000000
0.001000 0.091250 0.000000
0.001500 0.091250 0.000000
0.002000 0.091250 0.000000
0.002500 0.091250 0.000000
0.003000 0.091250 0.000000
0.003500 0.091250 0.000000
0.004000 0.091250 0.000000
0.004500 0.091250 0.000000
0.000500 0.090000 0.000000
0.001000 0.090000 0.000000
0.001500 0.090000 0.000000
0.002000 0.090000 0.000000
0.002500 0.090000 0.000000
0.003000 0.090000 0.000000
0.003500 0.090000 0.000000
0.004000 0.090000 0.000000
0.004500 0.090000 0.000000
0.000500 0.088750 0.000000
0.001000 0.088750 0.000000
0.001500 0.088750 0.000000
0.002000 0.088750 0.000000
0.002500 0.088750 0.000000
0.003000 0.088750 0.000000
0.003500 0.088750 0.000000
0.004000 0.088750 0.000000
0.004500 0.088750 0.000000
0.000500 0.087500 0.000000
0.001000 0.087500 0.000000
0.001500 0.087500 0.000000
0.002000 0.087500 0.000000
0.002500 0.087500 0.000000
0.003000 0.087500 0.000000
0.003500 0.087500 0.000000
0.004000 0.087500 0.000000
0.004500 0.087500 0.000000
0.000500 0.086250 0.000000
0.001000 0.086250 0.000000
0.001500 0.086250 0.000000
0.002000 0.086250 0.000000
0.002500 0.086250 0.000000
0.003000 0.086250 0.000000
0.003500 0.086250 0.000000
0.004000 0.086250 0.000000
0.004500 0.086250 0.000000
0.000500 0.085000 0.000000
0.001000 0.085000 0.000000
0.001500 0.085000 0.000000
0.002000 0.085000 0.000000
0.002500 0.085000 0.000000
0.003000 0.085000 0.000000
0.003500 0.085000 0.000000
0.004000 0.085000 0.000000
0.004500 0.085000 0.000000
0.000500 0.083750 0.000000
0.001000 0.083750 0.000000
0.001500 0.083750 0.000000
0.002000 0.083750 0.000000
0.002500 0.083750 0.000000
0.003000 0.083750 0.000000
0.003500 0.083750 0.000000
0.004000 0.083750 0.000000
0.004500 0.083750 0.000000
0.000500 0.082500 0.000000
0.001000 0.082500 0.000000
0.001500 0.082500 0.000000
0.002000 0.082500 0.000000
0.002500 0.082500 0.000000
0.003000 0.082500 0.000000
0.003500 0.082500 0.000000
0.004000 0.082500 0.000000
0.004500 0.082500 0.000000
0.000500 0.081250 0.000000
0.001000 0.081250 0.000000
0.001500 0.081250 0.000000
0.002000 0.081250 0.000000
0.002500 0.081250 0.000000
0.003000 0.081250 0.000000
0.003500 0.081250 0.000000
0.004000 0.081250 0.000000
0.004500 0.081250 0.000000
0.000500 0.080000 0.000000
0.001000 0.080000 0.000000
0.001500 0.080000 0.000000
0.002000 0.080000 0.000000
0.002500 0.080000 0.000000
0.003000 0.080000 0.000000
0.003500 0.080000 0.000000
0.004000 0.080000 0.000000
0.004500 0.080000 0.000000
0.000500 0.078750 0.000000
0.001000 0.078750 0.000000
0.001500 0.078750 0.000000
0.002000 0.078750 0.000000
0.002500 0.078750 0.000000
0.003000 0.078750 0.000000
0.003500 0.078750 0.000000
0.004000 0.078750 0.000000
0.004500 0.078750 0.000000
0.000500 0.077500 0.000000
0.001000 0.077500 0.000000
0.001500 0.077500 0.000000
0.002000 0.077500 0.000000
0.002500 0.077500 0.000000
0.003000 0.077500 0.000000
0.003500 0.077500 0.000000
0.004000 0.077500 0.000000
0.004500 0.077500 0.000000
0.000500 0.076250 0.000000
0.001000 0.076250 0.000000
0.001500 0.076250 0.000000
0.002000 0.076250 0.000000
0.002500 0.076250 0.000000
0.003000 0.076250 0.000000
0.003500 0.076250 0.000000
0.004000 0.076250 0.000000
0.004500 0.076250 0.000000
0.000500 0.075000 0.000000
0.001000 0.075000 0.000000
0.001500 0.075000 0.000000
0.002000 0.075000 0.000000
0.002500 0.075000 0.000000
0.003000 0.075000 0.000000
0.003500 0.075000 0.000000
0.004000 0.075000 0.000000
0.004500 0.075000 0.000000
0.000500 0.073750 0.000000
0.001000 0.073750 0.000000
0.001500 0.073750 0.000000
0.002000 0.073750 0.000000
0.002500 0.073750 0.000000
0.003000 0.073750 0.000000
[...]
POINT_DATA 891
SCALARS u1 float
LOOKUP_TABLE default
-4e-19
-2e-06
-2e-06
-2e-06
-2e-06
-2e-06
-2e-06
-2e-06
-2e-06
-2e-06
-2e-06
-2e-06
-2e-06
-2e-06
-2e-06
-2e-06
-2e-06
-2e-06
-2e-06
-2e-06
-2e-06
-2e-06
-2e-06
-2e-06
-2e-06
-2e-06
-2e-06
-2e-06
-2e-06
-2e-06
-2e-06
-2e-06
-2e-06
-2e-06
-2e-06
-2e-06
-2e-06
-2e-06
-2e-06
-2e-06
-2e-06
-2e-06
-2e-06
-2e-06
-2e-06
-2e-06
-2e-06
-2e-06
-2e-06
-2e-06
-2e-06
-2e-06
-2e-06
-2e-06
-2e-06
-2e-06
-2e-06
-2e-06
-2e-06
-2e-06
-2e-06
-2e-06
-2e-06
-2e-06
-2e-06
-2e-06
-2e-06
-2e-06
-2e-06
-2e-06
-2e-06
-2e-06
-2e-06
-2e-06
-2e-06
-2e-06
-2e-06
-2e-06
-2e-06
-2e-06
-1e-06
2e-06
-5e-18
1e-06
2e-06
2e-06
2e-06
2e-06
2e-06
2e-06
2e-06
2e-06
2e-06
2e-06
2e-06
2e-06
2e-06
2e-06
2e-06
2e-06
2e-06
2e-06
2e-06
2e-06
2e-06
2e-06
2e-06
2e-06
2e-06
2e-06
2e-06
2e-06
2e-06
2e-06
2e-06
2e-06
2e-06
2e-06
2e-06
2e-06
2e-06
2e-06
2e-06
2e-06
2e-06
2e-06
2e-06
2e-06
2e-06
2e-06
2e-06
2e-06
2e-06
2e-06
2e-06
2e-06
2e-06
2e-06
2e-06
2e-06
2e-06
2e-06
2e-06
2e-06
2e-06
2e-06
2e-06
2e-06
2e-06
2e-06
2e-06
2e-06
2e-06
2e-06
2e-06
2e-06
2e-06
2e-06
2e-06
2e-06
2e-06
2e-06
2e-06
1e-06
8e-07
4e-07
2e-14
-4e-07
-8e-07
-1e-06
-2e-06
2e-17
-7e-19
-5e-17
-4e-17
3e-18
2e-17
-6e-18
2e-17
-2e-18
1e-06
7e-07
5e-07
2e-07
3e-15
-2e-07
-5e-07
-7e-07
-1e-06
1e-06
1e-06
7e-07
4e-07
1e-14
-4e-07
-7e-07
-1e-06
-1e-06
2e-06
1e-06
8e-07
4e-07
2e-14
-4e-07
-8e-07
-1e-06
-2e-06
2e-06
1e-06
8e-07
4e-07
2e-14
-4e-07
-8e-07
-1e-06
-2e-06
2e-06
1e-06
8e-07
4e-07
2e-14
-4e-07
-8e-07
-1e-06
-2e-06
2e-06
1e-06
8e-07
4e-07
2e-14
-4e-07
-8e-07
-1e-06
-2e-06
2e-06
1e-06
8e-07
4e-07
2e-14
-4e-07
-8e-07
-1e-06
-2e-06
2e-06
1e-06
8e-07
4e-07
2e-14
-4e-07
-8e-07
-1e-06
-2e-06
2e-06
1e-06
8e-07
4e-07
2e-14
-4e-07
-8e-07
-1e-06
-2e-06
2e-06
1e-06
8e-07
4e-07
2e-14
-4e-07
-8e-07
-1e-06
-2e-06
2e-06
1e-06
8e-07
4e-07
2e-14
-4e-07
-8e-07
-1e-06
-2e-06
2e-06
1e-06
8e-07
4e-07
2e-14
-4e-07
-8e-07
-1e-06
-2e-06
2e-06
1e-06
8e-07
4e-07
2e-14
-4e-07
-8e-07
-1e-06
-2e-06
2e-06
1e-06
8e-07
4e-07
2e-14
-4e-07
-8e-07
-1e-06
-2e-06
2e-06
1e-06
8e-07
4e-07
2e-14
-4e-07
-8e-07
-1e-06
-2e-06
2e-06
1e-06
8e-07
4e-07
2e-14
-4e-07
-8e-07
-1e-06
-2e-06
2e-06
1e-06
8e-07
4e-07
2e-14
-4e-07
-8e-07
-1e-06
-2e-06
2e-06
1e-06
8e-07
4e-07
2e-14
-4e-07
-8e-07
-1e-06
-2e-06
2e-06
1e-06
8e-07
4e-07
2e-14
-4e-07
-8e-07
-1e-06
-2e-06
2e-06
1e-06
8e-07
4e-07
2e-14
-4e-07
-8e-07
-1e-06
-2e-06
2e-06
1e-06
8e-07
4e-07
2e-14
-4e-07
-8e-07
-1e-06
-2e-06
2e-06
1e-06
8e-07
4e-07
2e-14
-4e-07
-8e-07
-1e-06
-2e-06
2e-06
1e-06
8e-07
4e-07
2e-14
-4e-07
-8e-07
-1e-06
-2e-06
2e-06
1e-06
8e-07
4e-07
2e-14
-4e-07
-8e-07
-1e-06
-2e-06
2e-06
1e-06
8e-07
4e-07
2e-14
-4e-07
-8e-07
-1e-06
-2e-06
2e-06
1e-06
8e-07
4e-07
2e-14
-4e-07
-8e-07
-1e-06
-2e-06
2e-06
1e-06
8e-07
4e-07
2e-14
-4e-07
-8e-07
-1e-06
-2e-06
2e-06
1e-06
8e-07
4e-07
2e-14
-4e-07
-8e-07
-1e-06
-2e-06
2e-06
1e-06
8e-07
4e-07
2e-14
-4e-07
-8e-07
-1e-06
-2e-06
2e-06
1e-06
8e-07
4e-07
2e-14
-4e-07
-8e-07
-1e-06
-2e-06
2e-06
1e-06
8e-07
4e-07
2e-14
-4e-07
-8e-07
-1e-06
-2e-06
2e-06
1e-06
8e-07
4e-07
2e-14
-4e-07
-8e-07
-1e-06
-2e-06
2e-06
1e-06
8e-07
4e-07
2e-14
-4e-07
-8e-07
-1e-06
-2e-06
2e-06
1e-06
8e-07
4e-07
2e-14
-4e-07
-8e-07
-1e-06
-2e-06
2e-06
1e-06
8e-07
4e-07
2e-14
-4e-07
-8e-07
-1e-06
-2e-06
2e-06
1e-06
8e-07
4e-07
2e-14
-4e-07
-8e-07
-1e-06
-2e-06
2e-06
1e-06
8e-07
4e-07
2e-14
-4e-07
-8e-07
-1e-06
-2e-06
2e-06
1e-06
8e-07
4e-07
2e-14
-4e-07
-8e-07
-1e-06
-2e-06
2e-06
1e-06
8e-07
4e-07
2e-14
-4e-07
-8e-07
-1e-06
-2e-06
2e-06
1e-06
8e-07
4e-07
2e-14
-4e-07
-8e-07
-1e-06
-2e-06
2e-06
1e-06
8e-07
4e-07
2e-14
-4e-07
-8e-07
-1e-06
-2e-06
2e-06
1e-06
8e-07
4e-07
2e-14
-4e-07
-8e-07
-1e-06
-2e-06
2e-06
1e-06
8e-07
4e-07
2e-14
-4e-07
-8e-07
-1e-06
-2e-06
2e-06
1e-06
8e-07
4e-07
2e-14
-4e-07
-8e-07
-1e-06
-2e-06
2e-06
1e-06
8e-07
4e-07
2e-14
-4e-07
-8e-07
-1e-06
-2e-06
2e-06
1e-06
8e-07
4e-07
2e-14
-4e-07
-8e-07
-1e-06
-2e-06
2e-06
1e-06
8e-07
4e-07
2e-14
-4e-07
-8e-07
-1e-06
-2e-06
2e-06
1e-06
8e-07
4e-07
2e-14
-4e-07
-8e-07
-1e-06
-2e-06
2e-06
1e-06
8e-07
4e-07
2e-14
-4e-07
-8e-07
-1e-06
-2e-06
2e-06
1e-06
8e-07
4e-07
2e-14
-4e-07
-8e-07
-1e-06
-2e-06
2e-06
1e-06
8e-07
4e-07
2e-14
-4e-07
-8e-07
-1e-06
-2e-06
2e-06
1e-06
8e-07
4e-07
2e-14
-4e-07
-8e-07
-1e-06
-2e-06
2e-06
1e-06
8e-07
4e-07
2e-14
-4e-07
-8e-07
-1e-06
-2e-06
2e-06
1e-06
8e-07
4e-07
2e-14
-4e-07
-8e-07
-1e-06
-2e-06
2e-06
1e-06
8e-07
4e-07
2e-14
-4e-07
-8e-07
-1e-06
-2e-06
2e-06
1e-06
8e-07
4e-07
2e-14
-4e-07
-8e-07
-1e-06
-2e-06
2e-06
1e-06
8e-07
4e-07
2e-14
-4e-07
-8e-07
-1e-06
-2e-06
2e-06
1e-06
8e-07
4e-07
2e-14
-4e-07
-8e-07
-1e-06
-2e-06
2e-06
1e-06
8e-07
4e-07
2e-14
-4e-07
-8e-07
-1e-06
-2e-06
2e-06
1e-06
8e-07
4e-07
2e-14
-4e-07
-8e-07
-1e-06
-2e-06
2e-06
1e-06
8e-07
4e-07
2e-14
-4e-07
-8e-07
-1e-06
-2e-06
2e-06
1e-06
8e-07
4e-07
2e-14
-4e-07
-8e-07
-1e-06
-2e-06
2e-06
1e-06
8e-07
4e-07
2e-14
-4e-07
-8e-07
-1e-06
-2e-06
2e-06
1e-06
8e-07
4e-07
2e-14
-4e-07
-8e-07
-1e-06
-2e-06
2e-06
1e-06
8e-07
4e-07
2e-14
-4e-07
-8e-07
-1e-06
-2e-06
2e-06
1e-06
8e-07
4e-07
2e-14
-4e-07
-8e-07
-1e-06
-2e-06
2e-06
1e-06
8e-07
4e-07
2e-14
-4e-07
-8e-07
-1e-06
-2e-06
2e-06
1e-06
8e-07
4e-07
2e-14
-4e-07
-8e-07
-1e-06
-2e-06
2e-06
1e-06
8e-07
4e-07
2e-14
-4e-07
-8e-07
-1e-06
-2e-06
2e-06
1e-06
8e-07
4e-07
2e-14
-4e-07
-8e-07
-1e-06
-2e-06
2e-06
1e-06
8e-07
4e-07
2e-14
-4e-07
-8e-07
-1e-06
-2e-06
2e-06
1e-06
8e-07
4e-07
2e-14
-4e-07
-8e-07
-1e-06
-2e-06
2e-06
1e-06
8e-07
4e-07
2e-14
-4e-07
-8e-07
-1e-06
-2e-06
2e-06
1e-06
8e-07
4e-07
2e-14
-4e-07
-8e-07
-1e-06
-2e-06
2e-06
1e-06
8e-07
4e-07
2e-14
-4e-07
-8e-07
-1e-06
-2e-06
2e-06
1e-06
8e-07
4e-07
2e-14
-4e-07
-8e-07
-1e-06
-2e-06
2e-06
1e-06
8e-07
4e-07
2e-14
-4e-07
-8e-07
-1e-06
-2e-06
2e-06
1e-06
8e-07
4e-07
2e-14
-4e-07
-8e-07
-1e-06
-2e-06
2e-06
1e-06
8e-07
4e-07
2e-14
-4e-07
-8e-07
-1e-06
-2e-06
SCALARS u2 float
LOOKUP_TABLE default
2e-18
-0.0005
-0.0005
-0.0005
-0.0005
-0.0005
-0.0005
-0.0005
-0.0005
-0.0004
-0.0004
-0.0004
-0.0004
-0.0004
-0.0004
-0.0004
-0.0004
-0.0004
-0.0004
-0.0004
-0.0004
-0.0004
-0.0004
-0.0004
-0.0004
-0.0003
-0.0003
-0.0003
-0.0003
-0.0003
-0.0003
-0.0003
-0.0003
-0.0003
-0.0003
-0.0003
-0.0003
-0.0003
-0.0003
-0.0003
-0.0003
-0.0002
-0.0002
-0.0002
-0.0002
-0.0002
-0.0002
-0.0002
-0.0002
-0.0002
-0.0002
-0.0002
-0.0002
-0.0002
-0.0002
-0.0002
-0.0002
-0.0001
-0.0001
-0.0001
-0.0001
-0.0001
-0.0001
-0.0001
-0.0001
-0.0001
-9e-05
-9e-05
-8e-05
-7e-05
-7e-05
-6e-05
-6e-05
-5e-05
-4e-05
-4e-05
-3e-05
-2e-05
-2e-05
-1e-05
-7e-06
-0.0005
-6e-18
-7e-06
-1e-05
-2e-05
-2e-05
-3e-05
-4e-05
-4e-05
-5e-05
-6e-05
-6e-05
-7e-05
-7e-05
-8e-05
-9e-05
-9e-05
-0.0001
-0.0001
-0.0001
-0.0001
-0.0001
-0.0001
-0.0001
-0.0001
-0.0001
-0.0002
-0.0002
-0.0002
-0.0002
-0.0002
-0.0002
-0.0002
-0.0002
-0.0002
-0.0002
-0.0002
-0.0002
-0.0002
-0.0002
-0.0002
-0.0002
-0.0003
-0.0003
-0.0003
-0.0003
-0.0003
-0.0003
-0.0003
-0.0003
-0.0003
-0.0003
-0.0003
-0.0003
-0.0003
-0.0003
-0.0003
-0.0003
-0.0004
-0.0004
-0.0004
-0.0004
-0.0004
-0.0004
-0.0004
-0.0004
-0.0004
-0.0004
-0.0004
-0.0004
-0.0004
-0.0004
-0.0004
-0.0004
-0.0005
-0.0005
-0.0005
-0.0005
-0.0005
-0.0005
-0.0005
-0.0005
-0.0005
-0.0005
-0.0005
-0.0005
-0.0005
-0.0005
-0.0005
-0.0005
-8e-17
-4e-17
7e-17
1e-17
-1e-17
3e-18
-2e-17
7e-17
2e-17
-6e-06
-6e-06
-6e-06
-6e-06
-6e-06
-6e-06
-6e-06
-6e-06
-6e-06
-1e-05
-1e-05
-1e-05
-1e-05
-1e-05
-1e-05
-1e-05
-1e-05
-1e-05
-2e-05
-2e-05
-2e-05
-2e-05
-2e-05
-2e-05
-2e-05
-2e-05
-2e-05
-2e-05
-2e-05
-2e-05
-2e-05
-2e-05
-2e-05
-2e-05
-2e-05
-2e-05
-3e-05
-3e-05
-3e-05
-3e-05
-3e-05
-3e-05
-3e-05
-3e-05
-3e-05
-4e-05
-4e-05
-4e-05
-4e-05
-4e-05
-4e-05
-4e-05
-4e-05
-4e-05
-4e-05
-4e-05
-4e-05
-4e-05
-4e-05
-4e-05
-4e-05
-4e-05
-4e-05
-5e-05
-5e-05
-5e-05
-5e-05
-5e-05
-5e-05
-5e-05
-5e-05
-5e-05
-6e-05
-6e-05
-6e-05
-6e-05
-6e-05
-6e-05
-6e-05
-6e-05
-6e-05
-6e-05
-6e-05
-6e-05
-6e-05
-6e-05
-6e-05
-6e-05
-6e-05
-6e-05
-7e-05
-7e-05
-7e-05
-7e-05
-7e-05
-7e-05
-7e-05
-7e-05
-7e-05
-7e-05
-7e-05
-7e-05
-7e-05
-7e-05
-7e-05
-7e-05
-7e-05
-7e-05
-8e-05
-8e-05
-8e-05
-8e-05
-8e-05
-8e-05
-8e-05
-8e-05
-8e-05
-9e-05
-9e-05
-9e-05
-9e-05
-9e-05
-9e-05
-9e-05
-9e-05
-9e-05
-9e-05
-9e-05
-9e-05
-9e-05
-9e-05
-9e-05
-9e-05
-9e-05
-9e-05
-0.0001
-0.0001
-0.0001
-0.0001
-0.0001
-0.0001
-0.0001
-0.0001
-0.0001
-0.0001
-0.0001
-0.0001
-0.0001
-0.0001
-0.0001
-0.0001
-0.0001
-0.0001
-0.0001
-0.0001
-0.0001
-0.0001
-0.0001
-0.0001
-0.0001
-0.0001
-0.0001
-0.0001
-0.0001
-0.0001
-0.0001
-0.0001
-0.0001
-0.0001
-0.0001
-0.0001
-0.0001
-0.0001
-0.0001
-0.0001
-0.0001
-0.0001
-0.0001
-0.0001
-0.0001
-0.0001
-0.0001
-0.0001
-0.0001
-0.0001
-0.0001
-0.0001
-0.0001
-0.0001
-0.0001
-0.0001
-0.0001
-0.0001
-0.0001
-0.0001
-0.0001
-0.0001
-0.0001
-0.0001
-0.0001
-0.0001
-0.0001
-0.0001
-0.0001
-0.0001
-0.0001
-0.0001
-0.0001
-0.0001
-0.0001
-0.0001
-0.0001
-0.0001
-0.0001
-0.0001
-0.0001
-0.0002
-0.0002
-0.0002
-0.0002
-0.0002
-0.0002
-0.0002
-0.0002
-0.0002
-0.0002
-0.0002
-0.0002
-0.0002
-0.0002
-0.0002
-0.0002
-0.0002
-0.0002
-0.0002
-0.0002
-0.0002
-0.0002
-0.0002
-0.0002
-0.0002
-0.0002
-0.0002
-0.0002
-0.0002
-0.0002
-0.0002
-0.0002
-0.0002
-0.0002
-0.0002
-0.0002
-0.0002
-0.0002
-0.0002
-0.0002
-0.0002
-0.0002
-0.0002
-0.0002
-0.0002
-0.0002
-0.0002
-0.0002
-0.0002
-0.0002
-0.0002
-0.0002
-0.0002
-0.0002
-0.0002
-0.0002
-0.0002
-0.0002
-0.0002
-0.0002
-0.0002
-0.0002
-0.0002
-0.0002
-0.0002
-0.0002
-0.0002
-0.0002
-0.0002
-0.0002
-0.0002
-0.0002
-0.0002
-0.0002
-0.0002
-0.0002
-0.0002
-0.0002
-0.0002
-0.0002
-0.0002
-0.0002
-0.0002
-0.0002
-0.0002
-0.0002
-0.0002
-0.0002
-0.0002
-0.0002
-0.0002
-0.0002
-0.0002
-0.0002
-0.0002
-0.0002
-0.0002
-0.0002
-0.0002
-0.0002
-0.0002
-0.0002
-0.0002
-0.0002
-0.0002
-0.0002
-0.0002
-0.0002
-0.0002
-0.0002
-0.0002
-0.0002
-0.0002
-0.0002
-0.0002
-0.0002
-0.0002
-0.0002
-0.0002
-0.0002
-0.0002
-0.0002
-0.0002
-0.0002
-0.0002
-0.0002
-0.0002
-0.0002
-0.0002
-0.0002
-0.0002
-0.0002
-0.0002
-0.0002
-0.0002
-0.0002
-0.0002
-0.0002
-0.0002
-0.0002
-0.0002
-0.0002
-0.0002
-0.0002
-0.0003
-0.0003
-0.0003
-0.0003
-0.0003
-0.0003
-0.0003
-0.0003
-0.0003
-0.0003
-0.0003
-0.0003
-0.0003
-0.0003
-0.0003
-0.0003
-0.0003
-0.0003
-0.0003
-0.0003
-0.0003
-0.0003
-0.0003
-0.0003
-0.0003
-0.0003
-0.0003
-0.0003
-0.0003
-0.0003
-0.0003
-0.0003
-0.0003
-0.0003
-0.0003
-0.0003
-0.0003
-0.0003
-0.0003
-0.0003
-0.0003
-0.0003
-0.0003
-0.0003
-0.0003
-0.0003
-0.0003
-0.0003
-0.0003
-0.0003
-0.0003
-0.0003
-0.0003
-0.0003
-0.0003
-0.0003
-0.0003
-0.0003
-0.0003
-0.0003
-0.0003
-0.0003
-0.0003
-0.0003
-0.0003
-0.0003
-0.0003
-0.0003
-0.0003
-0.0003
-0.0003
-0.0003
-0.0003
-0.0003
-0.0003
-0.0003
-0.0003
-0.0003
-0.0003
-0.0003
-0.0003
-0.0003
-0.0003
-0.0003
-0.0003
-0.0003
-0.0003
-0.0003
-0.0003
-0.0003
-0.0003
-0.0003
-0.0003
-0.0003
-0.0003
-0.0003
-0.0003
-0.0003
-0.0003
-0.0003
-0.0003
-0.0003
-0.0003
-0.0003
-0.0003
-0.0003
-0.0003
-0.0003
-0.0003
-0.0003
-0.0003
-0.0003
-0.0003
-0.0003
-0.0003
-0.0003
-0.0003
-0.0003
-0.0003
-0.0003
-0.0003
-0.0003
-0.0003
-0.0003
-0.0003
-0.0003
-0.0003
-0.0003
-0.0003
-0.0003
-0.0003
-0.0003
-0.0003
-0.0003
-0.0003
-0.0003
-0.0003
-0.0003
-0.0003
-0.0003
-0.0003
-0.0003
-0.0003
-0.0003
-0.0004
-0.0004
-0.0004
-0.0004
-0.0004
-0.0004
-0.0004
-0.0004
-0.0004
-0.0004
-0.0004
-0.0004
-0.0004
-0.0004
-0.0004
-0.0004
-0.0004
-0.0004
-0.0004
-0.0004
-0.0004
-0.0004
-0.0004
-0.0004
-0.0004
-0.0004
-0.0004
-0.0004
-0.0004
-0.0004
-0.0004
-0.0004
-0.0004
-0.0004
-0.0004
-0.0004
-0.0004
-0.0004
-0.0004
-0.0004
-0.0004
-0.0004
-0.0004
-0.0004
-0.0004
-0.0004
-0.0004
-0.0004
-0.0004
-0.0004
-0.0004
-0.0004
-0.0004
-0.0004
-0.0004
-0.0004
-0.0004
-0.0004
-0.0004
-0.0004
-0.0004
-0.0004
-0.0004
-0.0004
-0.0004
-0.0004
-0.0004
-0.0004
-0.0004
-0.0004
-0.0004
-0.0004
-0.0004
-0.0004
-0.0004
-0.0004
-0.0004
-0.0004
-0.0004
-0.0004
-0.0004
-0.0004
-0.0004
-0.0004
-0.0004
-0.0004
-0.0004
-0.0004
-0.0004
-0.0004
-0.0004
-0.0004
-0.0004
-0.0004
-0.0004
-0.0004
-0.0004
-0.0004
-0.0004
-0.0004
-0.0004
-0.0004
-0.0004
-0.0004
-0.0004
-0.0004
-0.0004
-0.0004
-0.0004
-0.0004
-0.0004
-0.0004
-0.0004
-0.0004
-0.0004
-0.0004
-0.0004
-0.0004
-0.0004
-0.0004
-0.0004
-0.0004
-0.0004
-0.0004
-0.0004
-0.0004
-0.0004
-0.0004
-0.0004
-0.0004
-0.0004
-0.0004
-0.0004
-0.0004
-0.0004
-0.0004
-0.0004
-0.0004
-0.0004
-0.0004
-0.0004
-0.0004
-0.0004
-0.0004
-0.0005
-0.0005
-0.0005
-0.0005
-0.0005
-0.0005
-0.0005
-0.0005
-0.0005
-0.0005
-0.0005
-0.0005
-0.0005
-0.0005
-0.0005
-0.0005
-0.0005
-0.0005
-0.0005
-0.0005
-0.0005
-0.0005
-0.0005
-0.0005
-0.0005
-0.0005
-0.0005
-0.0005
-0.0005
-0.0005
-0.0005
-0.0005
-0.0005
-0.0005
-0.0005
-0.0005
-0.0005
-0.0005
-0.0005
-0.0005
-0.0005
-0.0005
-0.0005
-0.0005
-0.0005
-0.0005
-0.0005
-0.0005
-0.0005
-0.0005
-0.0005
-0.0005
-0.0005
-0.0005
-0.0005
-0.0005
-0.0005
-0.0005
-0.0005
-0.0005
-0.0005
-0.0005
-0.0005
SCALARS strain_1 float
LOOKUP_TABLE default
-0.000138
-0.220349
-0.217017
-0.213668
-0.210304
-0.206924
-0.203529
-0.200121
-0.196700
-0.193268
-0.189824
-0.186371
-0.182909
-0.179437
-0.175960
-0.172476
-0.168987
-0.165493
-0.161999
-0.158503
-0.155006
-0.151510
-0.148017
-0.144527
-0.141042
-0.137564
-0.134094
-0.130634
-0.127184
-0.123747
-0.120323
-0.116915
-0.113524
-0.110151
-0.106798
-0.103468
-0.100161
-0.096879
-0.093623
-0.090397
-0.087201
-0.084036
-0.080905
-0.077810
-0.074751
-0.071731
-0.068751
-0.065813
-0.062918
-0.060069
-0.057267
-0.054513
-0.051809
-0.049156
-0.046557
-0.044011
-0.041522
-0.039089
-0.036714
-0.034399
-0.032146
-0.029953
-0.027824
-0.025758
-0.023758
-0.021823
-0.019954
-0.018153
-0.016419
-0.014753
-0.013157
-0.011628
-0.010169
-0.008780
-0.007459
-0.006208
-0.005026
-0.003913
-0.002868
-0.001891
-0.000981
-0.220545
-0.000005
-0.000851
-0.001762
-0.002742
-0.003790
-0.004907
-0.006091
-0.007346
-0.008670
-0.010063
-0.011526
-0.013057
-0.014658
-0.016328
-0.018066
-0.019871
-0.021744
-0.023684
-0.025689
-0.027758
-0.029892
-0.032089
-0.034348
-0.036667
-0.039047
-0.041485
-0.043979
-0.046530
-0.049135
-0.051793
-0.054502
-0.057261
-0.060068
-0.062922
-0.065822
-0.068766
-0.071751
-0.074775
-0.077840
-0.080941
-0.084076
-0.087246
-0.090447
-0.093679
-0.096939
-0.100226
-0.103538
-0.106873
-0.110230
-0.113607
-0.117004
-0.120417
-0.123844
-0.127286
-0.130740
-0.134206
-0.137681
-0.141162
-0.144651
-0.148145
-0.151642
-0.155141
-0.158642
-0.162143
-0.165642
-0.169138
-0.172630
-0.176118
-0.179599
-0.183073
-0.186539
-0.189996
-0.193442
-0.196878
-0.200302
-0.203713
-0.207110
-0.210492
-0.213859
-0.217210
-0.220526
-0.220508
-0.220489
-0.220469
-0.220450
-0.220431
-0.220410
-0.220390
-0.220370
-0.000112
-0.000088
-0.000069
-0.000050
-0.000037
-0.000024
-0.000015
-0.000009
-0.000006
-0.000851
-0.000853
-0.000859
-0.000868
-0.000879
-0.000895
-0.000912
-0.000932
-0.000956
-0.001763
-0.001765
-0.001771
-0.001779
-0.001790
-0.001805
-0.001822
-0.001842
-0.001865
-0.002742
-0.002744
-0.002749
-0.002757
-0.002768
-0.002782
-0.002799
-0.002820
-0.002842
-0.003789
-0.003791
-0.003796
-0.003804
-0.003814
-0.003828
-0.003845
-0.003865
-0.003887
-0.004905
-0.004906
-0.004911
-0.004919
-0.004929
-0.004943
-0.004959
-0.004979
-0.005001
-0.006089
-0.006091
-0.006095
-0.006103
-0.006113
-0.006126
-0.006142
-0.006161
-0.006183
-0.007344
-0.007345
-0.007349
-0.007356
-0.007365
-0.007378
-0.007395
-0.007412
-0.007435
-0.008667
-0.008668
-0.008671
-0.008678
-0.008688
-0.008700
-0.008715
-0.008734
-0.008756
-0.010060
-0.010060
-0.010064
-0.010070
-0.010078
-0.010091
-0.010106
-0.010125
-0.010145
-0.011523
-0.011522
-0.011525
-0.011531
-0.011540
-0.011552
-0.011566
-0.011584
-0.011605
-0.013054
-0.013054
-0.013056
-0.013062
-0.013070
-0.013081
-0.013095
-0.013113
-0.013133
-0.014654
-0.014653
-0.014656
-0.014661
-0.014668
-0.014679
-0.014694
-0.014710
-0.014730
-0.016324
-0.016322
-0.016324
-0.016329
-0.016336
-0.016348
-0.016361
-0.016377
-0.016397
-0.018061
-0.018060
-0.018061
-0.018065
-0.018072
-0.018084
-0.018096
-0.018112
-0.018132
-0.019867
-0.019865
-0.019866
-0.019869
-0.019876
-0.019886
-0.019900
-0.019914
-0.019933
-0.021739
-0.021736
-0.021738
-0.021741
-0.021747
-0.021757
-0.021769
-0.021784
-0.021803
-0.023678
-0.023675
-0.023675
-0.023679
-0.023685
-0.023694
-0.023705
-0.023720
-0.023738
-0.025683
-0.025679
-0.025679
-0.025682
-0.025688
-0.025696
-0.025708
-0.025722
-0.025739
-0.027753
-0.027749
-0.027748
-0.027751
-0.027756
-0.027764
-0.027775
-0.027789
-0.027805
-0.029885
-0.029882
-0.029882
-0.029884
-0.029888
-0.029896
-0.029905
-0.029919
-0.029935
-0.032083
-0.032078
-0.032077
-0.032079
-0.032083
-0.032090
-0.032100
-0.032113
-0.032127
-0.034341
-0.034337
-0.034335
-0.034336
-0.034340
-0.034346
-0.034356
-0.034368
-0.034382
-0.036660
-0.036656
-0.036653
-0.036654
-0.036658
-0.036663
-0.036672
-0.036683
-0.036698
-0.039039
-0.039034
-0.039031
-0.039032
-0.039035
-0.039040
-0.039048
-0.039059
-0.039073
-0.041477
-0.041471
-0.041468
-0.041468
-0.041471
-0.041475
-0.041483
-0.041494
-0.041506
-0.043971
-0.043965
-0.043962
-0.043961
-0.043963
-0.043969
-0.043975
-0.043985
-0.043997
-0.046521
-0.046514
-0.046511
-0.046510
-0.046512
-0.046515
-0.046522
-0.046531
-0.046543
-0.049125
-0.049119
-0.049115
-0.049114
-0.049114
-0.049118
-0.049123
-0.049133
-0.049143
-0.051783
-0.051776
-0.051771
-0.051770
-0.051771
-0.051773
-0.051779
-0.051787
-0.051797
-0.054492
-0.054484
-0.054479
-0.054477
-0.054478
-0.054480
-0.054485
-0.054491
-0.054502
-0.057251
-0.057243
-0.057238
-0.057235
-0.057235
-0.057236
-0.057241
-0.057247
-0.057257
-0.060058
-0.060050
-0.060045
-0.060041
-0.060040
-0.060041
-0.060045
-0.060051
-0.060059
-0.062912
-0.062903
-0.062898
-0.062894
-0.062892
-0.062893
-0.062896
-0.062903
-0.062910
-0.065812
-0.065803
-0.065796
-0.065792
-0.065790
-0.065790
-0.065792
-0.065797
-0.065804
-0.068754
-0.068745
-0.068738
-0.068733
-0.068731
-0.068730
-0.068733
-0.068737
-0.068743
-0.071739
-0.071730
-0.071723
-0.071717
-0.071714
-0.071713
-0.071715
-0.071718
-0.071724
-0.074764
-0.074754
-0.074746
-0.074742
-0.074737
-0.074736
-0.074737
-0.074740
-0.074744
-0.077827
-0.077818
-0.077810
-0.077803
-0.077800
-0.077798
-0.077797
-0.077799
-0.077804
-0.080928
-0.080917
-0.080910
-0.080903
-0.080898
-0.080896
-0.080895
-0.080897
-0.080900
-0.084064
-0.084053
-0.084045
-0.084038
-0.084033
-0.084030
-0.084028
-0.084029
-0.084032
-0.087233
-0.087222
-0.087213
-0.087206
-0.087201
-0.087197
-0.087195
-0.087196
-0.087197
-0.090434
-0.090423
-0.090414
-0.090406
-0.090399
-0.090396
-0.090393
-0.090393
-0.090394
-0.093665
-0.093654
-0.093645
-0.093637
-0.093630
-0.093625
-0.093622
-0.093621
-0.093621
-0.096926
-0.096914
-0.096903
-0.096895
-0.096888
-0.096883
-0.096880
-0.096878
-0.096878
-0.100212
-0.100200
-0.100190
-0.100180
-0.100172
-0.100168
-0.100164
-0.100161
-0.100160
-0.103524
-0.103511
-0.103500
-0.103491
-0.103483
-0.103478
-0.103473
-0.103469
-0.103468
-0.106859
-0.106846
-0.106835
-0.106826
-0.106817
-0.106810
-0.106805
-0.106801
-0.106799
-0.110216
-0.110202
-0.110191
-0.110181
-0.110172
-0.110165
-0.110159
-0.110156
-0.110152
-0.113593
-0.113580
-0.113568
-0.113558
-0.113548
-0.113540
-0.113534
-0.113529
-0.113525
-0.116989
-0.116975
-0.116963
-0.116952
-0.116943
-0.116934
-0.116928
-0.116921
-0.116917
-0.120401
-0.120387
-0.120375
-0.120364
-0.120354
-0.120345
-0.120337
-0.120332
-0.120326
-0.123829
-0.123815
-0.123803
-0.123791
-0.123781
-0.123771
-0.123763
-0.123756
-0.123751
-0.127271
-0.127257
-0.127243
-0.127232
-0.127221
-0.127211
-0.127203
-0.127195
-0.127189
-0.130725
-0.130711
-0.130697
-0.130686
-0.130674
-0.130664
-0.130654
-0.130647
-0.130639
-0.134190
-0.134175
-0.134162
-0.134149
-0.134137
-0.134126
-0.134117
-0.134109
-0.134101
-0.137665
-0.137649
-0.137636
-0.137622
-0.137611
-0.137599
-0.137589
-0.137580
-0.137572
-0.141146
-0.141131
-0.141117
-0.141104
-0.141091
-0.141079
-0.141069
-0.141060
-0.141051
-0.144635
-0.144619
-0.144606
-0.144591
-0.144578
-0.144567
-0.144555
-0.144545
-0.144535
-0.148129
-0.148113
-0.148099
-0.148084
-0.148070
-0.148059
-0.148047
-0.148036
-0.148026
-0.151626
-0.151610
-0.151594
-0.151580
-0.151567