# vtk DataFile Version 2.0
Generated volume Mesh
ASCII
DATASET UNSTRUCTURED_GRID
POINTS 891 float
0.005000 0.100000 0.000000
0.005000 0.000000 0.000000
0.005000 0.001250 0.000000
0.005000 0.002500 0.000000
0.005000 0.003750 0.000000
0.005000 0.005000 0.000000
0.005000 0.006250 0.000000
0.005000 0.007500 0.000000
0.005000 0.008750 0.000000
0.005000 0.010000 0.000000
0.005000 0.011250 0.000000
0.005000 0.012500 0.000000
0.005000 0.013750 0.000000
0.005000 0.015000 0.000000
0.005000 0.016250 0.000000
0.005000 0.017500 0.000000
0.005000 0.018750 0.000000
0.005000 0.020000 0.000000
0.005000 0.021250 0.000000
0.005000 0.022500 0.000000
0.005000 0.023750 0.000000
0.005000 0.025000 0.000000
0.005000 0.026250 0.000000
0.005000 0.027500 0.000000
0.005000 0.028750 0.000000
0.005000 0.030000 0.000000
0.005000 0.031250 0.000000
0.005000 0.032500 0.000000
0.005000 0.033750 0.000000
0.005000 0.035000 0.000000
0.005000 0.036250 0.000000
0.005000 0.037500 0.000000
0.005000 0.038750 0.000000
0.005000 0.040000 0.000000
0.005000 0.041250 0.000000
0.005000 0.042500 0.000000
0.005000 0.043750 0.000000
0.005000 0.045000 0.000000
0.005000 0.046250 0.000000
0.005000 0.047500 0.000000
0.005000 0.048750 0.000000
0.005000 0.050000 0.000000
0.005000 0.051250 0.000000
0.005000 0.052500 0.000000
0.005000 0.053750 0.000000
0.005000 0.055000 0.000000
0.005000 0.056250 0.000000
0.005000 0.057500 0.000000
0.005000 0.058750 0.000000
0.005000 0.060000 0.000000
0.005000 0.061250 0.000000
0.005000 0.062500 0.000000
0.005000 0.063750 0.000000
0.005000 0.065000 0.000000
0.005000 0.066250 0.000000
0.005000 0.067500 0.000000
0.005000 0.068750 0.000000
0.005000 0.070000 0.000000
0.005000 0.071250 0.000000
0.005000 0.072500 0.000000
0.005000 0.073750 0.000000
0.005000 0.075000 0.000000
0.005000 0.076250 0.000000
0.005000 0.077500 0.000000
0.005000 0.078750 0.000000
0.005000 0.080000 0.000000
0.005000 0.081250 0.000000
0.005000 0.082500 0.000000
0.005000 0.083750 0.000000
0.005000 0.085000 0.000000
0.005000 0.086250 0.000000
0.005000 0.087500 0.000000
0.005000 0.088750 0.000000
0.005000 0.090000 0.000000
0.005000 0.091250 0.000000
0.005000 0.092500 0.000000
0.005000 0.093750 0.000000
0.005000 0.095000 0.000000
0.005000 0.096250 0.000000
0.005000 0.097500 0.000000
0.005000 0.098750 0.000000
0.000000 0.000000 0.000000
0.000000 0.100000 0.000000
0.000000 0.098750 0.000000
0.000000 0.097500 0.000000
0.000000 0.096250 0.000000
0.000000 0.095000 0.000000
0.000000 0.093750 0.000000
0.000000 0.092500 0.000000
0.000000 0.091250 0.000000
0.000000 0.090000 0.000000
0.000000 0.088750 0.000000
0.000000 0.087500 0.000000
0.000000 0.086250 0.000000
0.000000 0.085000 0.000000
0.000000 0.083750 0.000000
0.000000 0.082500 0.000000
0.000000 0.081250 0.000000
0.000000 0.080000 0.000000
0.000000 0.078750 0.000000
0.000000 0.077500 0.000000
0.000000 0.076250 0.000000
0.000000 0.075000 0.000000
0.000000 0.073750 0.000000
0.000000 0.072500 0.000000
0.000000 0.071250 0.000000
0.000000 0.070000 0.000000
0.000000 0.068750 0.000000
0.000000 0.067500 0.000000
0.000000 0.066250 0.000000
0.000000 0.065000 0.000000
0.000000 0.063750 0.000000
0.000000 0.062500 0.000000
0.000000 0.061250 0.000000
0.000000 0.060000 0.000000
0.000000 0.058750 0.000000
0.000000 0.057500 0.000000
0.000000 0.056250 0.000000
0.000000 0.055000 0.000000
0.000000 0.053750 0.000000
0.000000 0.052500 0.000000
0.000000 0.051250 0.000000
0.000000 0.050000 0.000000
0.000000 0.048750 0.000000
0.000000 0.047500 0.000000
0.000000 0.046250 0.000000
0.000000 0.045000 0.000000
0.000000 0.043750 0.000000
0.000000 0.042500 0.000000
0.000000 0.041250 0.000000
0.000000 0.040000 0.000000
0.000000 0.038750 0.000000
0.000000 0.037500 0.000000
0.000000 0.036250 0.000000
0.000000 0.035000 0.000000
0.000000 0.033750 0.000000
0.000000 0.032500 0.000000
0.000000 0.031250 0.000000
0.000000 0.030000 0.000000
0.000000 0.028750 0.000000
0.000000 0.027500 0.000000
0.000000 0.026250 0.000000
0.000000 0.025000 0.000000
0.000000 0.023750 0.000000
0.000000 0.022500 0.000000
0.000000 0.021250 0.000000
0.000000 0.020000 0.000000
0.000000 0.018750 0.000000
0.000000 0.017500 0.000000
0.000000 0.016250 0.000000
0.000000 0.015000 0.000000
0.000000 0.013750 0.000000
0.000000 0.012500 0.000000
0.000000 0.011250 0.000000
0.000000 0.010000 0.000000
0.000000 0.008750 0.000000
0.000000 0.007500 0.000000
0.000000 0.006250 0.000000
0.000000 0.005000 0.000000
0.000000 0.003750 0.000000
0.000000 0.002500 0.000000
0.000000 0.001250 0.000000
0.000500 0.000000 0.000000
0.001000 0.000000 0.000000
0.001500 0.000000 0.000000
0.002000 0.000000 0.000000
0.002500 0.000000 0.000000
0.003000 0.000000 0.000000
0.003500 0.000000 0.000000
0.004000 0.000000 0.000000
0.004500 0.000000 0.000000
0.004500 0.100000 0.000000
0.004000 0.100000 0.000000
0.003500 0.100000 0.000000
0.003000 0.100000 0.000000
0.002500 0.100000 0.000000
0.002000 0.100000 0.000000
0.001500 0.100000 0.000000
0.001000 0.100000 0.000000
0.000500 0.100000 0.000000
0.000500 0.098750 0.000000
0.001000 0.098750 0.000000
0.001500 0.098750 0.000000
0.002000 0.098750 0.000000
0.002500 0.098750 0.000000
0.003000 0.098750 0.000000
0.003500 0.098750 0.000000
0.004000 0.098750 0.000000
0.004500 0.098750 0.000000
0.000500 0.097500 0.000000
0.001000 0.097500 0.000000
0.001500 0.097500 0.000000
0.002000 0.097500 0.000000
0.002500 0.097500 0.000000
0.003000 0.097500 0.000000
0.003500 0.097500 0.000000
0.004000 0.097500 0.000000
0.004500 0.097500 0.000000
0.000500 0.096250 0.000000
0.001000 0.096250 0.000000
0.001500 0.096250 0.000000
0.002000 0.096250 0.000000
0.002500 0.096250 0.000000
0.003000 0.096250 0.000000
0.003500 0.096250 0.000000
0.004000 0.096250 0.000000
0.004500 0.096250 0.000000
0.000500 0.095000 0.000000
0.001000 0.095000 0.000000
0.001500 0.095000 0.000000
0.002000 0.095000 0.000000
0.002500 0.095000 0.000000
0.003000 0.095000 0.000000
0.003500 0.095000 0.000000
0.004000 0.095000 0.000000
0.004500 0.095000 0.000000
0.000500 0.093750 0.000000
0.001000 0.093750 0.000000
0.001500 0.093750 0.000000
0.002000 0.093750 0.000000
0.002500 0.093750 0.000000
0.003000 0.093750 0.000000
0.003500 0.093750 0.000000
0.004000 0.093750 0.000000
0.004500 0.093750 0.000000
0.000500 0.092500 0.000000
0.001000 0.092500 0.000000
0.001500 0.092500 0.000000
0.002000 0.092500 0.000000
0.002500 0.092500 0.000000
0.003000 0.092500 0.000000
0.003500 0.092500 0.000000
0.004000 0.092500 0.000000
0.004500 0.092500 0.000000
0.000500 0.091250 0.000000
0.001000 0.091250 0.000000
0.001500 0.091250 0.000000
0.002000 0.091250 0.000000
0.002500 0.091250 0.000000
0.003000 0.091250 0.000000
0.003500 0.091250 0.000000
0.004000 0.091250 0.000000
0.004500 0.091250 0.000000
0.000500 0.090000 0.000000
0.001000 0.090000 0.000000
0.001500 0.090000 0.000000
0.002000 0.090000 0.000000
0.002500 0.090000 0.000000
0.003000 0.090000 0.000000
0.003500 0.090000 0.000000
0.004000 0.090000 0.000000
0.004500 0.090000 0.000000
0.000500 0.088750 0.000000
0.001000 0.088750 0.000000
0.001500 0.088750 0.000000
0.002000 0.088750 0.000000
0.002500 0.088750 0.000000
0.003000 0.088750 0.000000
0.003500 0.088750 0.000000
0.004000 0.088750 0.000000
0.004500 0.088750 0.000000
0.000500 0.087500 0.000000
0.001000 0.087500 0.000000
0.001500 0.087500 0.000000
0.002000 0.087500 0.000000
0.002500 0.087500 0.000000
0.003000 0.087500 0.000000
0.003500 0.087500 0.000000
0.004000 0.087500 0.000000
0.004500 0.087500 0.000000
0.000500 0.086250 0.000000
0.001000 0.086250 0.000000
0.001500 0.086250 0.000000
0.002000 0.086250 0.000000
0.002500 0.086250 0.000000
0.003000 0.086250 0.000000
0.003500 0.086250 0.000000
0.004000 0.086250 0.000000
0.004500 0.086250 0.000000
0.000500 0.085000 0.000000
0.001000 0.085000 0.000000
0.001500 0.085000 0.000000
0.002000 0.085000 0.000000
0.002500 0.085000 0.000000
0.003000 0.085000 0.000000
0.003500 0.085000 0.000000
0.004000 0.085000 0.000000
0.004500 0.085000 0.000000
0.000500 0.083750 0.000000
0.001000 0.083750 0.000000
0.001500 0.083750 0.000000
0.002000 0.083750 0.000000
0.002500 0.083750 0.000000
0.003000 0.083750 0.000000
0.003500 0.083750 0.000000
0.004000 0.083750 0.000000
0.004500 0.083750 0.000000
0.000500 0.082500 0.000000
0.001000 0.082500 0.000000
0.001500 0.082500 0.000000
0.002000 0.082500 0.000000
0.002500 0.082500 0.000000
0.003000 0.082500 0.000000
0.003500 0.082500 0.000000
0.004000 0.082500 0.000000
0.004500 0.082500 0.000000
0.000500 0.081250 0.000000
0.001000 0.081250 0.000000
0.001500 0.081250 0.000000
0.002000 0.081250 0.000000
0.002500 0.081250 0.000000
0.003000 0.081250 0.000000
0.003500 0.081250 0.000000
0.004000 0.081250 0.000000
0.004500 0.081250 0.000000
0.000500 0.080000 0.000000
0.001000 0.080000 0.000000
0.001500 0.080000 0.000000
0.002000 0.080000 0.000000
0.002500 0.080000 0.000000
0.003000 0.080000 0.000000
0.003500 0.080000 0.000000
0.004000 0.080000 0.000000
0.004500 0.080000 0.000000
0.000500 0.078750 0.000000
0.001000 0.078750 0.000000
0.001500 0.078750 0.000000
0.002000 0.078750 0.000000
0.002500 0.078750 0.000000
0.003000 0.078750 0.000000
0.003500 0.078750 0.000000
0.004000 0.078750 0.000000
0.004500 0.078750 0.000000
0.000500 0.077500 0.000000
0.001000 0.077500 0.000000
0.001500 0.077500 0.000000
0.002000 0.077500 0.000000
0.002500 0.077500 0.000000
0.003000 0.077500 0.000000
0.003500 0.077500 0.000000
0.004000 0.077500 0.000000
0.004500 0.077500 0.000000
0.000500 0.076250 0.000000
0.001000 0.076250 0.000000
0.001500 0.076250 0.000000
0.002000 0.076250 0.000000
0.002500 0.076250 0.000000
0.003000 0.076250 0.000000
0.003500 0.076250 0.000000
0.004000 0.076250 0.000000
0.004500 0.076250 0.000000
0.000500 0.075000 0.000000
0.001000 0.075000 0.000000
0.001500 0.075000 0.000000
0.002000 0.075000 0.000000
0.002500 0.075000 0.000000
0.003000 0.075000 0.000000
0.003500 0.075000 0.000000
0.004000 0.075000 0.000000
0.004500 0.075000 0.000000
0.000500 0.073750 0.000000
0.001000 0.073750 0.000000
0.001500 0.073750 0.000000
0.002000 0.073750 0.000000
0.002500 0.073750 0.000000
0.003000 0.073750 0.000000
[...]
POINT_DATA 891
SCALARS u1 float
LOOKUP_TABLE default
-1e-17
-1e-06
-1e-06
-1e-06
-1e-06
-1e-06
-1e-06
-1e-06
-1e-06
-1e-06
-1e-06
-1e-06
-1e-06
-1e-06
-1e-06
-1e-06
-1e-06
-1e-06
-1e-06
-1e-06
-1e-06
-1e-06
-1e-06
-1e-06
-1e-06
-1e-06
-1e-06
-1e-06
-1e-06
-1e-06
-1e-06
-1e-06
-1e-06
-1e-06
-1e-06
-1e-06
-1e-06
-1e-06
-1e-06
-1e-06
-1e-06
-1e-06
-1e-06
-1e-06
-1e-06
-1e-06
-1e-06
-1e-06
-1e-06
-1e-06
-1e-06
-1e-06
-1e-06
-1e-06
-1e-06
-1e-06
-1e-06
-1e-06
-1e-06
-1e-06
-1e-06
-1e-06
-1e-06
-1e-06
-1e-06
-1e-06
-1e-06
-1e-06
-1e-06
-1e-06
-1e-06
-1e-06
-1e-06
-1e-06
-1e-06
-1e-06
-1e-06
-1e-06
-1e-06
-1e-06
-9e-07
1e-06
3e-18
9e-07
1e-06
1e-06
1e-06
1e-06
1e-06
1e-06
1e-06
1e-06
1e-06
1e-06
1e-06
1e-06
1e-06
1e-06
1e-06
1e-06
1e-06
1e-06
1e-06
1e-06
1e-06
1e-06
1e-06
1e-06
1e-06
1e-06
1e-06
1e-06
1e-06
1e-06
1e-06
1e-06
1e-06
1e-06
1e-06
1e-06
1e-06
1e-06
1e-06
1e-06
1e-06
1e-06
1e-06
1e-06
1e-06
1e-06
1e-06
1e-06
1e-06
1e-06
1e-06
1e-06
1e-06
1e-06
1e-06
1e-06
1e-06
1e-06
1e-06
1e-06
1e-06
1e-06
1e-06
1e-06
1e-06
1e-06
1e-06
1e-06
1e-06
1e-06
1e-06
1e-06
1e-06
1e-06
1e-06
1e-06
1e-06
1e-06
9e-07
7e-07
4e-07
2e-07
-2e-14
-2e-07
-4e-07
-7e-07
-9e-07
1e-17
4e-18
-1e-18
-4e-18
2e-18
6e-18
2e-17
-7e-18
-7e-18
6e-07
4e-07
3e-07
1e-07
-7e-15
-1e-07
-3e-07
-4e-07
-6e-07
9e-07
6e-07
4e-07
2e-07
-8e-15
-2e-07
-4e-07
-6e-07
-9e-07
9e-07
7e-07
5e-07
2e-07
-9e-15
-2e-07
-5e-07
-7e-07
-9e-07
9e-07
7e-07
4e-07
2e-07
-1e-14
-2e-07
-4e-07
-7e-07
-9e-07
9e-07
7e-07
4e-07
2e-07
-1e-14
-2e-07
-4e-07
-7e-07
-9e-07
9e-07
7e-07
4e-07
2e-07
-1e-14
-2e-07
-4e-07
-7e-07
-9e-07
9e-07
7e-07
4e-07
2e-07
-1e-14
-2e-07
-4e-07
-7e-07
-9e-07
9e-07
7e-07
4e-07
2e-07
-1e-14
-2e-07
-4e-07
-7e-07
-9e-07
9e-07
7e-07
4e-07
2e-07
-1e-14
-2e-07
-4e-07
-7e-07
-9e-07
9e-07
7e-07
4e-07
2e-07
-1e-14
-2e-07
-4e-07
-7e-07
-9e-07
9e-07
7e-07
4e-07
2e-07
-2e-14
-2e-07
-4e-07
-7e-07
-9e-07
9e-07
7e-07
4e-07
2e-07
-2e-14
-2e-07
-4e-07
-7e-07
-9e-07
9e-07
7e-07
4e-07
2e-07
-2e-14
-2e-07
-4e-07
-7e-07
-9e-07
9e-07
7e-07
4e-07
2e-07
-2e-14
-2e-07
-4e-07
-7e-07
-9e-07
9e-07
7e-07
4e-07
2e-07
-2e-14
-2e-07
-4e-07
-7e-07
-9e-07
9e-07
7e-07
4e-07
2e-07
-2e-14
-2e-07
-4e-07
-7e-07
-9e-07
9e-07
7e-07
4e-07
2e-07
-2e-14
-2e-07
-4e-07
-7e-07
-9e-07
9e-07
7e-07
4e-07
2e-07
-2e-14
-2e-07
-4e-07
-7e-07
-9e-07
9e-07
7e-07
4e-07
2e-07
-2e-14
-2e-07
-4e-07
-7e-07
-9e-07
9e-07
7e-07
4e-07
2e-07
-2e-14
-2e-07
-4e-07
-7e-07
-9e-07
9e-07
7e-07
4e-07
2e-07
-2e-14
-2e-07
-4e-07
-7e-07
-9e-07
9e-07
7e-07
4e-07
2e-07
-2e-14
-2e-07
-4e-07
-7e-07
-9e-07
9e-07
7e-07
4e-07
2e-07
-2e-14
-2e-07
-4e-07
-7e-07
-9e-07
9e-07
7e-07
4e-07
2e-07
-2e-14
-2e-07
-4e-07
-7e-07
-9e-07
9e-07
7e-07
4e-07
2e-07
-2e-14
-2e-07
-4e-07
-7e-07
-9e-07
9e-07
7e-07
4e-07
2e-07
-2e-14
-2e-07
-4e-07
-7e-07
-9e-07
9e-07
7e-07
4e-07
2e-07
-2e-14
-2e-07
-4e-07
-7e-07
-9e-07
9e-07
7e-07
4e-07
2e-07
-2e-14
-2e-07
-4e-07
-7e-07
-9e-07
9e-07
7e-07
4e-07
2e-07
-2e-14
-2e-07
-4e-07
-7e-07
-9e-07
9e-07
7e-07
4e-07
2e-07
-2e-14
-2e-07
-4e-07
-7e-07
-9e-07
9e-07
7e-07
4e-07
2e-07
-2e-14
-2e-07
-4e-07
-7e-07
-9e-07
9e-07
7e-07
4e-07
2e-07
-2e-14
-2e-07
-4e-07
-7e-07
-9e-07
9e-07
7e-07
4e-07
2e-07
-2e-14
-2e-07
-4e-07
-7e-07
-9e-07
9e-07
7e-07
4e-07
2e-07
-2e-14
-2e-07
-4e-07
-7e-07
-9e-07
9e-07
7e-07
4e-07
2e-07
-2e-14
-2e-07
-4e-07
-7e-07
-9e-07
9e-07
7e-07
4e-07
2e-07
-2e-14
-2e-07
-4e-07
-7e-07
-9e-07
9e-07
7e-07
4e-07
2e-07
-2e-14
-2e-07
-4e-07
-7e-07
-9e-07
9e-07
7e-07
4e-07
2e-07
-2e-14
-2e-07
-4e-07
-7e-07
-9e-07
9e-07
7e-07
4e-07
2e-07
-2e-14
-2e-07
-4e-07
-7e-07
-9e-07
9e-07
7e-07
4e-07
2e-07
-2e-14
-2e-07
-4e-07
-7e-07
-9e-07
9e-07
7e-07
4e-07
2e-07
-2e-14
-2e-07
-4e-07
-7e-07
-9e-07
9e-07
7e-07
4e-07
2e-07
-2e-14
-2e-07
-4e-07
-7e-07
-9e-07
9e-07
7e-07
4e-07
2e-07
-2e-14
-2e-07
-4e-07
-7e-07
-9e-07
9e-07
7e-07
4e-07
2e-07
-2e-14
-2e-07
-4e-07
-7e-07
-9e-07
9e-07
7e-07
4e-07
2e-07
-2e-14
-2e-07
-4e-07
-7e-07
-9e-07
9e-07
7e-07
4e-07
2e-07
-2e-14
-2e-07
-4e-07
-7e-07
-9e-07
9e-07
7e-07
4e-07
2e-07
-2e-14
-2e-07
-4e-07
-7e-07
-9e-07
9e-07
7e-07
4e-07
2e-07
-2e-14
-2e-07
-4e-07
-7e-07
-9e-07
9e-07
7e-07
4e-07
2e-07
-2e-14
-2e-07
-4e-07
-7e-07
-9e-07
9e-07
7e-07
4e-07
2e-07
-2e-14
-2e-07
-4e-07
-7e-07
-9e-07
9e-07
7e-07
4e-07
2e-07
-2e-14
-2e-07
-4e-07
-7e-07
-9e-07
9e-07
7e-07
4e-07
2e-07
-2e-14
-2e-07
-4e-07
-7e-07
-9e-07
9e-07
7e-07
4e-07
2e-07
-2e-14
-2e-07
-4e-07
-7e-07
-9e-07
9e-07
7e-07
4e-07
2e-07
-2e-14
-2e-07
-4e-07
-7e-07
-9e-07
9e-07
7e-07
4e-07
2e-07
-2e-14
-2e-07
-4e-07
-7e-07
-9e-07
9e-07
7e-07
4e-07
2e-07
-2e-14
-2e-07
-4e-07
-7e-07
-9e-07
9e-07
7e-07
4e-07
2e-07
-2e-14
-2e-07
-4e-07
-7e-07
-9e-07
9e-07
7e-07
4e-07
2e-07
-2e-14
-2e-07
-4e-07
-7e-07
-9e-07
9e-07
7e-07
4e-07
2e-07
-2e-14
-2e-07
-4e-07
-7e-07
-9e-07
9e-07
7e-07
4e-07
2e-07
-2e-14
-2e-07
-4e-07
-7e-07
-9e-07
9e-07
7e-07
4e-07
2e-07
-2e-14
-2e-07
-4e-07
-7e-07
-9e-07
9e-07
7e-07
4e-07
2e-07
-2e-14
-2e-07
-4e-07
-7e-07
-9e-07
9e-07
7e-07
4e-07
2e-07
-2e-14
-2e-07
-4e-07
-7e-07
-9e-07
9e-07
7e-07
4e-07
2e-07
-2e-14
-2e-07
-4e-07
-7e-07
-9e-07
9e-07
7e-07
4e-07
2e-07
-2e-14
-2e-07
-4e-07
-7e-07
-9e-07
9e-07
7e-07
4e-07
2e-07
-2e-14
-2e-07
-4e-07
-7e-07
-9e-07
9e-07
7e-07
4e-07
2e-07
-2e-14
-2e-07
-4e-07
-7e-07
-9e-07
9e-07
7e-07
4e-07
2e-07
-2e-14
-2e-07
-4e-07
-7e-07
-9e-07
9e-07
7e-07
4e-07
2e-07
-2e-14
-2e-07
-4e-07
-7e-07
-9e-07
9e-07
7e-07
4e-07
2e-07
-2e-14
-2e-07
-4e-07
-7e-07
-9e-07
9e-07
7e-07
4e-07
2e-07
-2e-14
-2e-07
-4e-07
-7e-07
-9e-07
9e-07
7e-07
4e-07
2e-07
-2e-14
-2e-07
-4e-07
-7e-07
-9e-07
9e-07
7e-07
4e-07
2e-07
-2e-14
-2e-07
-4e-07
-7e-07
-9e-07
9e-07
7e-07
4e-07
2e-07
-2e-14
-2e-07
-4e-07
-7e-07
-9e-07
9e-07
7e-07
4e-07
2e-07
-2e-14
-2e-07
-4e-07
-7e-07
-9e-07
9e-07
7e-07
4e-07
2e-07
-2e-14
-2e-07
-4e-07
-7e-07
-9e-07
9e-07
7e-07
4e-07
2e-07
-2e-14
-2e-07
-4e-07
-7e-07
-9e-07
9e-07
7e-07
4e-07
2e-07
-2e-14
-2e-07
-4e-07
-7e-07
-9e-07
9e-07
7e-07
4e-07
2e-07
-2e-14
-2e-07
-4e-07
-7e-07
-9e-07
SCALARS u2 float
LOOKUP_TABLE default
1e-17
-0.0003
-0.0003
-0.0003
-0.0003
-0.0003
-0.0003
-0.0003
-0.0003
-0.0003
-0.0003
-0.0003
-0.0003
-0.0003
-0.0003
-0.0002
-0.0002
-0.0002
-0.0002
-0.0002
-0.0002
-0.0002
-0.0002
-0.0002
-0.0002
-0.0002
-0.0002
-0.0002
-0.0002
-0.0002
-0.0002
-0.0002
-0.0002
-0.0002
-0.0002
-0.0002
-0.0002
-0.0002
-0.0002
-0.0002
-0.0002
-0.0002
-0.0001
-0.0001
-0.0001
-0.0001
-0.0001
-0.0001
-0.0001
-0.0001
-0.0001
-0.0001
-0.0001
-0.0001
-0.0001
-0.0001
-9e-05
-9e-05
-9e-05
-8e-05
-8e-05
-8e-05
-7e-05
-7e-05
-6e-05
-6e-05
-6e-05
-5e-05
-5e-05
-5e-05
-4e-05
-4e-05
-3e-05
-3e-05
-3e-05
-2e-05
-2e-05
-2e-05
-1e-05
-8e-06
-4e-06
-0.0003
-3e-17
-4e-06
-8e-06
-1e-05
-2e-05
-2e-05
-2e-05
-3e-05
-3e-05
-3e-05
-4e-05
-4e-05
-5e-05
-5e-05
-5e-05
-6e-05
-6e-05
-6e-05
-7e-05
-7e-05
-8e-05
-8e-05
-8e-05
-9e-05
-9e-05
-9e-05
-0.0001
-0.0001
-0.0001
-0.0001
-0.0001
-0.0001
-0.0001
-0.0001
-0.0001
-0.0001
-0.0001
-0.0001
-0.0001
-0.0001
-0.0002
-0.0002
-0.0002
-0.0002
-0.0002
-0.0002
-0.0002
-0.0002
-0.0002
-0.0002
-0.0002
-0.0002
-0.0002
-0.0002
-0.0002
-0.0002
-0.0002
-0.0002
-0.0002
-0.0002
-0.0002
-0.0002
-0.0002
-0.0002
-0.0002
-0.0002
-0.0002
-0.0003
-0.0003
-0.0003
-0.0003
-0.0003
-0.0003
-0.0003
-0.0003
-0.0003
-0.0003
-0.0003
-0.0003
-0.0003
-0.0003
-0.0003
-0.0003
-0.0003
-0.0003
-0.0003
-0.0003
-0.0003
-0.0003
-9e-17
2e-17
-5e-17
-3e-17
-4e-17
3e-17
4e-17
-5e-18
-3e-17
-4e-06
-4e-06
-4e-06
-4e-06
-4e-06
-4e-06
-4e-06
-4e-06
-4e-06
-8e-06
-7e-06
-7e-06
-7e-06
-7e-06
-7e-06
-7e-06
-7e-06
-8e-06
-1e-05
-1e-05
-1e-05
-1e-05
-1e-05
-1e-05
-1e-05
-1e-05
-1e-05
-2e-05
-2e-05
-2e-05
-2e-05
-2e-05
-2e-05
-2e-05
-2e-05
-2e-05
-2e-05
-2e-05
-2e-05
-2e-05
-2e-05
-2e-05
-2e-05
-2e-05
-2e-05
-2e-05
-2e-05
-2e-05
-2e-05
-2e-05
-2e-05
-2e-05
-2e-05
-2e-05
-3e-05
-3e-05
-3e-05
-3e-05
-3e-05
-3e-05
-3e-05
-3e-05
-3e-05
-3e-05
-3e-05
-3e-05
-3e-05
-3e-05
-3e-05
-3e-05
-3e-05
-3e-05
-3e-05
-3e-05
-3e-05
-3e-05
-3e-05
-3e-05
-3e-05
-3e-05
-3e-05
-4e-05
-4e-05
-4e-05
-4e-05
-4e-05
-4e-05
-4e-05
-4e-05
-4e-05
-4e-05
-4e-05
-4e-05
-4e-05
-4e-05
-4e-05
-4e-05
-4e-05
-4e-05
-5e-05
-5e-05
-5e-05
-5e-05
-5e-05
-5e-05
-5e-05
-5e-05
-5e-05
-5e-05
-5e-05
-5e-05
-5e-05
-5e-05
-5e-05
-5e-05
-5e-05
-5e-05
-5e-05
-5e-05
-5e-05
-5e-05
-5e-05
-5e-05
-5e-05
-5e-05
-5e-05
-6e-05
-6e-05
-6e-05
-6e-05
-6e-05
-6e-05
-6e-05
-6e-05
-6e-05
-6e-05
-6e-05
-6e-05
-6e-05
-6e-05
-6e-05
-6e-05
-6e-05
-6e-05
-6e-05
-6e-05
-6e-05
-6e-05
-6e-05
-6e-05
-6e-05
-6e-05
-6e-05
-7e-05
-7e-05
-7e-05
-7e-05
-7e-05
-7e-05
-7e-05
-7e-05
-7e-05
-7e-05
-7e-05
-7e-05
-7e-05
-7e-05
-7e-05
-7e-05
-7e-05
-7e-05
-8e-05
-8e-05
-8e-05
-8e-05
-8e-05
-8e-05
-8e-05
-8e-05
-8e-05
-8e-05
-8e-05
-8e-05
-8e-05
-8e-05
-8e-05
-8e-05
-8e-05
-8e-05
-8e-05
-8e-05
-8e-05
-8e-05
-8e-05
-8e-05
-8e-05
-8e-05
-8e-05
-9e-05
-9e-05
-9e-05
-9e-05
-9e-05
-9e-05
-9e-05
-9e-05
-9e-05
-9e-05
-9e-05
-9e-05
-9e-05
-9e-05
-9e-05
-9e-05
-9e-05
-9e-05
-9e-05
-9e-05
-9e-05
-9e-05
-9e-05
-9e-05
-9e-05
-9e-05
-9e-05
-0.0001
-0.0001
-0.0001
-0.0001
-0.0001
-0.0001
-0.0001
-0.0001
-0.0001
-0.0001
-0.0001
-0.0001
-0.0001
-0.0001
-0.0001
-0.0001
-0.0001
-0.0001
-0.0001
-0.0001
-0.0001
-0.0001
-0.0001
-0.0001
-0.0001
-0.0001
-0.0001
-0.0001
-0.0001
-0.0001
-0.0001
-0.0001
-0.0001
-0.0001
-0.0001
-0.0001
-0.0001
-0.0001
-0.0001
-0.0001
-0.0001
-0.0001
-0.0001
-0.0001
-0.0001
-0.0001
-0.0001
-0.0001
-0.0001
-0.0001
-0.0001
-0.0001
-0.0001
-0.0001
-0.0001
-0.0001
-0.0001
-0.0001
-0.0001
-0.0001
-0.0001
-0.0001
-0.0001
-0.0001
-0.0001
-0.0001
-0.0001
-0.0001
-0.0001
-0.0001
-0.0001
-0.0001
-0.0001
-0.0001
-0.0001
-0.0001
-0.0001
-0.0001
-0.0001
-0.0001
-0.0001
-0.0001
-0.0001
-0.0001
-0.0001
-0.0001
-0.0001
-0.0001
-0.0001
-0.0001
-0.0001
-0.0001
-0.0001
-0.0001
-0.0001
-0.0001
-0.0001
-0.0001
-0.0001
-0.0001
-0.0001
-0.0001
-0.0001
-0.0001
-0.0001
-0.0001
-0.0001
-0.0001
-0.0001
-0.0001
-0.0001
-0.0001
-0.0001
-0.0001
-0.0001
-0.0001
-0.0001
-0.0001
-0.0001
-0.0001
-0.0001
-0.0001
-0.0001
-0.0001
-0.0001
-0.0001
-0.0002
-0.0002
-0.0002
-0.0002
-0.0002
-0.0002
-0.0002
-0.0002
-0.0002
-0.0002
-0.0002
-0.0002
-0.0002
-0.0002
-0.0002
-0.0002
-0.0002
-0.0002
-0.0002
-0.0002
-0.0002
-0.0002
-0.0002
-0.0002
-0.0002
-0.0002
-0.0002
-0.0002
-0.0002
-0.0002
-0.0002
-0.0002
-0.0002
-0.0002
-0.0002
-0.0002
-0.0002
-0.0002
-0.0002
-0.0002
-0.0002
-0.0002
-0.0002
-0.0002
-0.0002
-0.0002
-0.0002
-0.0002
-0.0002
-0.0002
-0.0002
-0.0002
-0.0002
-0.0002
-0.0002
-0.0002
-0.0002
-0.0002
-0.0002
-0.0002
-0.0002
-0.0002
-0.0002
-0.0002
-0.0002
-0.0002
-0.0002
-0.0002
-0.0002
-0.0002
-0.0002
-0.0002
-0.0002
-0.0002
-0.0002
-0.0002
-0.0002
-0.0002
-0.0002
-0.0002
-0.0002
-0.0002
-0.0002
-0.0002
-0.0002
-0.0002
-0.0002
-0.0002
-0.0002
-0.0002
-0.0002
-0.0002
-0.0002
-0.0002
-0.0002
-0.0002
-0.0002
-0.0002
-0.0002
-0.0002
-0.0002
-0.0002
-0.0002
-0.0002
-0.0002
-0.0002
-0.0002
-0.0002
-0.0002
-0.0002
-0.0002
-0.0002
-0.0002
-0.0002
-0.0002
-0.0002
-0.0002
-0.0002
-0.0002
-0.0002
-0.0002
-0.0002
-0.0002
-0.0002
-0.0002
-0.0002
-0.0002
-0.0002
-0.0002
-0.0002
-0.0002
-0.0002
-0.0002
-0.0002
-0.0002
-0.0002
-0.0002
-0.0002
-0.0002
-0.0002
-0.0002
-0.0002
-0.0002
-0.0002
-0.0002
-0.0002
-0.0002
-0.0002
-0.0002
-0.0002
-0.0002
-0.0002
-0.0002
-0.0002
-0.0002
-0.0002
-0.0002
-0.0002
-0.0002
-0.0002
-0.0002
-0.0002
-0.0002
-0.0002
-0.0002
-0.0002
-0.0002
-0.0002
-0.0002
-0.0002
-0.0002
-0.0002
-0.0002
-0.0002
-0.0002
-0.0002
-0.0002
-0.0002
-0.0002
-0.0002
-0.0002
-0.0002
-0.0002
-0.0002
-0.0002
-0.0002
-0.0002
-0.0002
-0.0002
-0.0002
-0.0002
-0.0002
-0.0002
-0.0002
-0.0002
-0.0002
-0.0002
-0.0002
-0.0002
-0.0002
-0.0002
-0.0002
-0.0002
-0.0002
-0.0002
-0.0002
-0.0002
-0.0002
-0.0002
-0.0002
-0.0002
-0.0002
-0.0002
-0.0002
-0.0002
-0.0002
-0.0002
-0.0002
-0.0002
-0.0002
-0.0002
-0.0002
-0.0002
-0.0002
-0.0002
-0.0002
-0.0002
-0.0002
-0.0002
-0.0002
-0.0002
-0.0002
-0.0002
-0.0002
-0.0002
-0.0002
-0.0002
-0.0002
-0.0002
-0.0002
-0.0002
-0.0002
-0.0002
-0.0003
-0.0003
-0.0003
-0.0003
-0.0003
-0.0003
-0.0003
-0.0003
-0.0003
-0.0003
-0.0003
-0.0003
-0.0003
-0.0003
-0.0003
-0.0003
-0.0003
-0.0003
-0.0003
-0.0003
-0.0003
-0.0003
-0.0003
-0.0003
-0.0003
-0.0003
-0.0003
-0.0003
-0.0003
-0.0003
-0.0003
-0.0003
-0.0003
-0.0003
-0.0003
-0.0003
-0.0003
-0.0003
-0.0003
-0.0003
-0.0003
-0.0003
-0.0003
-0.0003
-0.0003
-0.0003
-0.0003
-0.0003
-0.0003
-0.0003
-0.0003
-0.0003
-0.0003
-0.0003
-0.0003
-0.0003
-0.0003
-0.0003
-0.0003
-0.0003
-0.0003
-0.0003
-0.0003
-0.0003
-0.0003
-0.0003
-0.0003
-0.0003
-0.0003
-0.0003
-0.0003
-0.0003
-0.0003
-0.0003
-0.0003
-0.0003
-0.0003
-0.0003
-0.0003
-0.0003
-0.0003
-0.0003
-0.0003
-0.0003
-0.0003
-0.0003
-0.0003
-0.0003
-0.0003
-0.0003
-0.0003
-0.0003
-0.0003
-0.0003
-0.0003
-0.0003
-0.0003
-0.0003
-0.0003
-0.0003
-0.0003
-0.0003
-0.0003
-0.0003
-0.0003
-0.0003
-0.0003
-0.0003
-0.0003
-0.0003
-0.0003
-0.0003
-0.0003
-0.0003
-0.0003
-0.0003
-0.0003
SCALARS strain_1 float
LOOKUP_TABLE default
-0.000080
-0.127859
-0.125925
-0.123981
-0.122029
-0.120068
-0.118098
-0.116121
-0.114136
-0.112144
-0.110146
-0.108142
-0.106132
-0.104118
-0.102100
-0.100079
-0.098054
-0.096027
-0.093999
-0.091970
-0.089941
-0.087912
-0.085885
-0.083861
-0.081839
-0.079820
-0.077807
-0.075799
-0.073797
-0.071802
-0.069815
-0.067838
-0.065870
-0.063913
-0.061968
-0.060035
-0.058116
-0.056212
-0.054323
-0.052451
-0.050596
-0.048760
-0.046943
-0.045147
-0.043372
-0.041620
-0.039890
-0.038186
-0.036507
-0.034853
-0.033227
-0.031629
-0.030060
-0.028521
-0.027012
-0.025536
-0.024091
-0.022679
-0.021301
-0.019959
-0.018650
-0.017378
-0.016143
-0.014945
-0.013784
-0.012661
-0.011577
-0.010532
-0.009526
-0.008560
-0.007633
-0.006746
-0.005900
-0.005094
-0.004327
-0.003602
-0.002916
-0.002270
-0.001664
-0.001097
-0.000569
-0.127972
-0.000003
-0.000493
-0.001022
-0.001591
-0.002199
-0.002846
-0.003534
-0.004262
-0.005030
-0.005838
-0.006686
-0.007575
-0.008505
-0.009473
-0.010481
-0.011529
-0.012615
-0.013741
-0.014904
-0.016105
-0.017343
-0.018618
-0.019928
-0.021274
-0.022655
-0.024070
-0.025516
-0.026997
-0.028508
-0.030051
-0.031622
-0.033224
-0.034853
-0.036509
-0.038191
-0.039898
-0.041631
-0.043386
-0.045164
-0.046963
-0.048783
-0.050622
-0.052480
-0.054355
-0.056247
-0.058154
-0.060076
-0.062011
-0.063959
-0.065919
-0.067889
-0.069870
-0.071859
-0.073856
-0.075861
-0.077871
-0.079887
-0.081908
-0.083933
-0.085960
-0.087989
-0.090020
-0.092051
-0.094083
-0.096113
-0.098142
-0.100168
-0.102192
-0.104212
-0.106228
-0.108239
-0.110245
-0.112245
-0.114239
-0.116226
-0.118204
-0.120175
-0.122138
-0.124092
-0.126037
-0.127961
-0.127951
-0.127939
-0.127928
-0.127917
-0.127905
-0.127893
-0.127882
-0.127870
-0.000065
-0.000051
-0.000039
-0.000029
-0.000021
-0.000014
-0.000008
-0.000005
-0.000003
-0.000494
-0.000495
-0.000498
-0.000503
-0.000510
-0.000519
-0.000529
-0.000541
-0.000554
-0.001022
-0.001024
-0.001027
-0.001032
-0.001039
-0.001047
-0.001057
-0.001069
-0.001082
-0.001591
-0.001592
-0.001595
-0.001600
-0.001606
-0.001614
-0.001624
-0.001635
-0.001649
-0.002198
-0.002199
-0.002202
-0.002207
-0.002213
-0.002221
-0.002231
-0.002242
-0.002255
-0.002846
-0.002846
-0.002849
-0.002853
-0.002859
-0.002867
-0.002877
-0.002888
-0.002901
-0.003533
-0.003534
-0.003536
-0.003540
-0.003546
-0.003554
-0.003563
-0.003574
-0.003587
-0.004260
-0.004261
-0.004263
-0.004267
-0.004273
-0.004281
-0.004290
-0.004300
-0.004313
-0.005029
-0.005028
-0.005031
-0.005035
-0.005040
-0.005047
-0.005056
-0.005067
-0.005079
-0.005837
-0.005836
-0.005838
-0.005842
-0.005847
-0.005854
-0.005863
-0.005874
-0.005886
-0.006685
-0.006685
-0.006686
-0.006690
-0.006695
-0.006701
-0.006711
-0.006720
-0.006733
-0.007573
-0.007573
-0.007574
-0.007578
-0.007583
-0.007589
-0.007598
-0.007607
-0.007619
-0.008502
-0.008501
-0.008502
-0.008506
-0.008510
-0.008517
-0.008525
-0.008534
-0.008546
-0.009471
-0.009470
-0.009471
-0.009473
-0.009478
-0.009484
-0.009492
-0.009502
-0.009513
-0.010479
-0.010477
-0.010479
-0.010481
-0.010485
-0.010491
-0.010499
-0.010508
-0.010519
-0.011526
-0.011525
-0.011525
-0.011528
-0.011532
-0.011537
-0.011545
-0.011554
-0.011565
-0.012612
-0.012611
-0.012612
-0.012614
-0.012618
-0.012623
-0.012630
-0.012638
-0.012649
-0.013737
-0.013736
-0.013736
-0.013738
-0.013741
-0.013747
-0.013754
-0.013762
-0.013772
-0.014901
-0.014899
-0.014899
-0.014900
-0.014903
-0.014909
-0.014915
-0.014924
-0.014933
-0.016102
-0.016100
-0.016099
-0.016101
-0.016104
-0.016108
-0.016114
-0.016122
-0.016132
-0.017340
-0.017337
-0.017337
-0.017338
-0.017341
-0.017345
-0.017351
-0.017358
-0.017368
-0.018614
-0.018611
-0.018611
-0.018612
-0.018614
-0.018618
-0.018624
-0.018631
-0.018640
-0.019924
-0.019922
-0.019921
-0.019922
-0.019924
-0.019927
-0.019933
-0.019939
-0.019948
-0.021270
-0.021267
-0.021266
-0.021266
-0.021268
-0.021272
-0.021277
-0.021284
-0.021292
-0.022651
-0.022647
-0.022646
-0.022646
-0.022648
-0.022651
-0.022656
-0.022662
-0.022670
-0.024065
-0.024062
-0.024060
-0.024059
-0.024061
-0.024064
-0.024068
-0.024074
-0.024082
-0.025512
-0.025509
-0.025507
-0.025506
-0.025507
-0.025510
-0.025514
-0.025520
-0.025527
-0.026991
-0.026988
-0.026986
-0.026985
-0.026986
-0.026988
-0.026992
-0.026997
-0.027004
-0.028503
-0.028499
-0.028497
-0.028496
-0.028496
-0.028498
-0.028502
-0.028507
-0.028513
-0.030045
-0.030041
-0.030038
-0.030037
-0.030038
-0.030039
-0.030042
-0.030047
-0.030053
-0.031617
-0.031613
-0.031610
-0.031609
-0.031608
-0.031610
-0.031612
-0.031617
-0.031622
-0.033218
-0.033213
-0.033210
-0.033208
-0.033208
-0.033209
-0.033212
-0.033215
-0.033221
-0.034846
-0.034842
-0.034839
-0.034836
-0.034836
-0.034837
-0.034839
-0.034842
-0.034847
-0.036502
-0.036498
-0.036494
-0.036492
-0.036491
-0.036492
-0.036493
-0.036496
-0.036501
-0.038184
-0.038180
-0.038176
-0.038173
-0.038173
-0.038173
-0.038174
-0.038177
-0.038181
-0.039892
-0.039887
-0.039883
-0.039880
-0.039879
-0.039879
-0.039880
-0.039882
-0.039886
-0.041624
-0.041618
-0.041614
-0.041612
-0.041610
-0.041609
-0.041610
-0.041612
-0.041615
-0.043379
-0.043374
-0.043369
-0.043366
-0.043364
-0.043363
-0.043363
-0.043365
-0.043368
-0.045157
-0.045152
-0.045146
-0.045143
-0.045141
-0.045140
-0.045140
-0.045141
-0.045143
-0.046956
-0.046950
-0.046945
-0.046941
-0.046939
-0.046938
-0.046938
-0.046938
-0.046940
-0.048776
-0.048769
-0.048765
-0.048761
-0.048758
-0.048756
-0.048755
-0.048756
-0.048757
-0.050614
-0.050608
-0.050603
-0.050599
-0.050596
-0.050594
-0.050593
-0.050593
-0.050594
-0.052472
-0.052466
-0.052460
-0.052456
-0.052453
-0.052450
-0.052449
-0.052448
-0.052449
-0.054348
-0.054341
-0.054335
-0.054330
-0.054326
-0.054324
-0.054322
-0.054322
-0.054322
-0.056239
-0.056232
-0.056226
-0.056221
-0.056218
-0.056214
-0.056212
-0.056211
-0.056211
-0.058146
-0.058139
-0.058133
-0.058127
-0.058123
-0.058120
-0.058118
-0.058116
-0.058116
-0.060068
-0.060060
-0.060054
-0.060049
-0.060044
-0.060040
-0.060038
-0.060036
-0.060035
-0.062003
-0.061996
-0.061989
-0.061983
-0.061979
-0.061975
-0.061972
-0.061970
-0.061968
-0.063951
-0.063943
-0.063937
-0.063931
-0.063926
-0.063921
-0.063918
-0.063916
-0.063914
-0.065911
-0.065903
-0.065896
-0.065890
-0.065885
-0.065880
-0.065876
-0.065874
-0.065871
-0.067881
-0.067873
-0.067866
-0.067860
-0.067854
-0.067850
-0.067845
-0.067842
-0.067840
-0.069861
-0.069853
-0.069846
-0.069840
-0.069834
-0.069829
-0.069824
-0.069821
-0.069818
-0.071851
-0.071842
-0.071835
-0.071828
-0.071822
-0.071817
-0.071812
-0.071808
-0.071805
-0.073847
-0.073839
-0.073832
-0.073825
-0.073818
-0.073813
-0.073808
-0.073804
-0.073800
-0.075852
-0.075843
-0.075836
-0.075828
-0.075822
-0.075816
-0.075811
-0.075807
-0.075802
-0.077862
-0.077853
-0.077846
-0.077838
-0.077832
-0.077826
-0.077820
-0.077815
-0.077811
-0.079878
-0.079870
-0.079861
-0.079854
-0.079847
-0.079840
-0.079835
-0.079829
-0.079825
-0.081899
-0.081890
-0.081882
-0.081874
-0.081867
-0.081860
-0.081854
-0.081848
-0.081843
-0.083923
-0.083914
-0.083906
-0.083898
-0.083891
-0.083883
-0.083877
-0.083871
-0.083866
-0.085950
-0.085941
-0.085932
-0.085925
-0.085917
-0.085910
-0.085903
-0.085897
-0.085891
-0.087980
-0.087971
-0.087962
-0.087954
-0.087946
-0.087938
-0.087931
-0.087924