# vtk DataFile Version 2.0
Generated volume Mesh
ASCII
DATASET UNSTRUCTURED_GRID
POINTS 891 float
0.005000 0.100000 0.000000
0.005000 0.000000 0.000000
0.005000 0.001250 0.000000
0.005000 0.002500 0.000000
0.005000 0.003750 0.000000
0.005000 0.005000 0.000000
0.005000 0.006250 0.000000
0.005000 0.007500 0.000000
0.005000 0.008750 0.000000
0.005000 0.010000 0.000000
0.005000 0.011250 0.000000
0.005000 0.012500 0.000000
0.005000 0.013750 0.000000
0.005000 0.015000 0.000000
0.005000 0.016250 0.000000
0.005000 0.017500 0.000000
0.005000 0.018750 0.000000
0.005000 0.020000 0.000000
0.005000 0.021250 0.000000
0.005000 0.022500 0.000000
0.005000 0.023750 0.000000
0.005000 0.025000 0.000000
0.005000 0.026250 0.000000
0.005000 0.027500 0.000000
0.005000 0.028750 0.000000
0.005000 0.030000 0.000000
0.005000 0.031250 0.000000
0.005000 0.032500 0.000000
0.005000 0.033750 0.000000
0.005000 0.035000 0.000000
0.005000 0.036250 0.000000
0.005000 0.037500 0.000000
0.005000 0.038750 0.000000
0.005000 0.040000 0.000000
0.005000 0.041250 0.000000
0.005000 0.042500 0.000000
0.005000 0.043750 0.000000
0.005000 0.045000 0.000000
0.005000 0.046250 0.000000
0.005000 0.047500 0.000000
0.005000 0.048750 0.000000
0.005000 0.050000 0.000000
0.005000 0.051250 0.000000
0.005000 0.052500 0.000000
0.005000 0.053750 0.000000
0.005000 0.055000 0.000000
0.005000 0.056250 0.000000
0.005000 0.057500 0.000000
0.005000 0.058750 0.000000
0.005000 0.060000 0.000000
0.005000 0.061250 0.000000
0.005000 0.062500 0.000000
0.005000 0.063750 0.000000
0.005000 0.065000 0.000000
0.005000 0.066250 0.000000
0.005000 0.067500 0.000000
0.005000 0.068750 0.000000
0.005000 0.070000 0.000000
0.005000 0.071250 0.000000
0.005000 0.072500 0.000000
0.005000 0.073750 0.000000
0.005000 0.075000 0.000000
0.005000 0.076250 0.000000
0.005000 0.077500 0.000000
0.005000 0.078750 0.000000
0.005000 0.080000 0.000000
0.005000 0.081250 0.000000
0.005000 0.082500 0.000000
0.005000 0.083750 0.000000
0.005000 0.085000 0.000000
0.005000 0.086250 0.000000
0.005000 0.087500 0.000000
0.005000 0.088750 0.000000
0.005000 0.090000 0.000000
0.005000 0.091250 0.000000
0.005000 0.092500 0.000000
0.005000 0.093750 0.000000
0.005000 0.095000 0.000000
0.005000 0.096250 0.000000
0.005000 0.097500 0.000000
0.005000 0.098750 0.000000
0.000000 0.000000 0.000000
0.000000 0.100000 0.000000
0.000000 0.098750 0.000000
0.000000 0.097500 0.000000
0.000000 0.096250 0.000000
0.000000 0.095000 0.000000
0.000000 0.093750 0.000000
0.000000 0.092500 0.000000
0.000000 0.091250 0.000000
0.000000 0.090000 0.000000
0.000000 0.088750 0.000000
0.000000 0.087500 0.000000
0.000000 0.086250 0.000000
0.000000 0.085000 0.000000
0.000000 0.083750 0.000000
0.000000 0.082500 0.000000
0.000000 0.081250 0.000000
0.000000 0.080000 0.000000
0.000000 0.078750 0.000000
0.000000 0.077500 0.000000
0.000000 0.076250 0.000000
0.000000 0.075000 0.000000
0.000000 0.073750 0.000000
0.000000 0.072500 0.000000
0.000000 0.071250 0.000000
0.000000 0.070000 0.000000
0.000000 0.068750 0.000000
0.000000 0.067500 0.000000
0.000000 0.066250 0.000000
0.000000 0.065000 0.000000
0.000000 0.063750 0.000000
0.000000 0.062500 0.000000
0.000000 0.061250 0.000000
0.000000 0.060000 0.000000
0.000000 0.058750 0.000000
0.000000 0.057500 0.000000
0.000000 0.056250 0.000000
0.000000 0.055000 0.000000
0.000000 0.053750 0.000000
0.000000 0.052500 0.000000
0.000000 0.051250 0.000000
0.000000 0.050000 0.000000
0.000000 0.048750 0.000000
0.000000 0.047500 0.000000
0.000000 0.046250 0.000000
0.000000 0.045000 0.000000
0.000000 0.043750 0.000000
0.000000 0.042500 0.000000
0.000000 0.041250 0.000000
0.000000 0.040000 0.000000
0.000000 0.038750 0.000000
0.000000 0.037500 0.000000
0.000000 0.036250 0.000000
0.000000 0.035000 0.000000
0.000000 0.033750 0.000000
0.000000 0.032500 0.000000
0.000000 0.031250 0.000000
0.000000 0.030000 0.000000
0.000000 0.028750 0.000000
0.000000 0.027500 0.000000
0.000000 0.026250 0.000000
0.000000 0.025000 0.000000
0.000000 0.023750 0.000000
0.000000 0.022500 0.000000
0.000000 0.021250 0.000000
0.000000 0.020000 0.000000
0.000000 0.018750 0.000000
0.000000 0.017500 0.000000
0.000000 0.016250 0.000000
0.000000 0.015000 0.000000
0.000000 0.013750 0.000000
0.000000 0.012500 0.000000
0.000000 0.011250 0.000000
0.000000 0.010000 0.000000
0.000000 0.008750 0.000000
0.000000 0.007500 0.000000
0.000000 0.006250 0.000000
0.000000 0.005000 0.000000
0.000000 0.003750 0.000000
0.000000 0.002500 0.000000
0.000000 0.001250 0.000000
0.000500 0.000000 0.000000
0.001000 0.000000 0.000000
0.001500 0.000000 0.000000
0.002000 0.000000 0.000000
0.002500 0.000000 0.000000
0.003000 0.000000 0.000000
0.003500 0.000000 0.000000
0.004000 0.000000 0.000000
0.004500 0.000000 0.000000
0.004500 0.100000 0.000000
0.004000 0.100000 0.000000
0.003500 0.100000 0.000000
0.003000 0.100000 0.000000
0.002500 0.100000 0.000000
0.002000 0.100000 0.000000
0.001500 0.100000 0.000000
0.001000 0.100000 0.000000
0.000500 0.100000 0.000000
0.000500 0.098750 0.000000
0.001000 0.098750 0.000000
0.001500 0.098750 0.000000
0.002000 0.098750 0.000000
0.002500 0.098750 0.000000
0.003000 0.098750 0.000000
0.003500 0.098750 0.000000
0.004000 0.098750 0.000000
0.004500 0.098750 0.000000
0.000500 0.097500 0.000000
0.001000 0.097500 0.000000
0.001500 0.097500 0.000000
0.002000 0.097500 0.000000
0.002500 0.097500 0.000000
0.003000 0.097500 0.000000
0.003500 0.097500 0.000000
0.004000 0.097500 0.000000
0.004500 0.097500 0.000000
0.000500 0.096250 0.000000
0.001000 0.096250 0.000000
0.001500 0.096250 0.000000
0.002000 0.096250 0.000000
0.002500 0.096250 0.000000
0.003000 0.096250 0.000000
0.003500 0.096250 0.000000
0.004000 0.096250 0.000000
0.004500 0.096250 0.000000
0.000500 0.095000 0.000000
0.001000 0.095000 0.000000
0.001500 0.095000 0.000000
0.002000 0.095000 0.000000
0.002500 0.095000 0.000000
0.003000 0.095000 0.000000
0.003500 0.095000 0.000000
0.004000 0.095000 0.000000
0.004500 0.095000 0.000000
0.000500 0.093750 0.000000
0.001000 0.093750 0.000000
0.001500 0.093750 0.000000
0.002000 0.093750 0.000000
0.002500 0.093750 0.000000
0.003000 0.093750 0.000000
0.003500 0.093750 0.000000
0.004000 0.093750 0.000000
0.004500 0.093750 0.000000
0.000500 0.092500 0.000000
0.001000 0.092500 0.000000
0.001500 0.092500 0.000000
0.002000 0.092500 0.000000
0.002500 0.092500 0.000000
0.003000 0.092500 0.000000
0.003500 0.092500 0.000000
0.004000 0.092500 0.000000
0.004500 0.092500 0.000000
0.000500 0.091250 0.000000
0.001000 0.091250 0.000000
0.001500 0.091250 0.000000
0.002000 0.091250 0.000000
0.002500 0.091250 0.000000
0.003000 0.091250 0.000000
0.003500 0.091250 0.000000
0.004000 0.091250 0.000000
0.004500 0.091250 0.000000
0.000500 0.090000 0.000000
0.001000 0.090000 0.000000
0.001500 0.090000 0.000000
0.002000 0.090000 0.000000
0.002500 0.090000 0.000000
0.003000 0.090000 0.000000
0.003500 0.090000 0.000000
0.004000 0.090000 0.000000
0.004500 0.090000 0.000000
0.000500 0.088750 0.000000
0.001000 0.088750 0.000000
0.001500 0.088750 0.000000
0.002000 0.088750 0.000000
0.002500 0.088750 0.000000
0.003000 0.088750 0.000000
0.003500 0.088750 0.000000
0.004000 0.088750 0.000000
0.004500 0.088750 0.000000
0.000500 0.087500 0.000000
0.001000 0.087500 0.000000
0.001500 0.087500 0.000000
0.002000 0.087500 0.000000
0.002500 0.087500 0.000000
0.003000 0.087500 0.000000
0.003500 0.087500 0.000000
0.004000 0.087500 0.000000
0.004500 0.087500 0.000000
0.000500 0.086250 0.000000
0.001000 0.086250 0.000000
0.001500 0.086250 0.000000
0.002000 0.086250 0.000000
0.002500 0.086250 0.000000
0.003000 0.086250 0.000000
0.003500 0.086250 0.000000
0.004000 0.086250 0.000000
0.004500 0.086250 0.000000
0.000500 0.085000 0.000000
0.001000 0.085000 0.000000
0.001500 0.085000 0.000000
0.002000 0.085000 0.000000
0.002500 0.085000 0.000000
0.003000 0.085000 0.000000
0.003500 0.085000 0.000000
0.004000 0.085000 0.000000
0.004500 0.085000 0.000000
0.000500 0.083750 0.000000
0.001000 0.083750 0.000000
0.001500 0.083750 0.000000
0.002000 0.083750 0.000000
0.002500 0.083750 0.000000
0.003000 0.083750 0.000000
0.003500 0.083750 0.000000
0.004000 0.083750 0.000000
0.004500 0.083750 0.000000
0.000500 0.082500 0.000000
0.001000 0.082500 0.000000
0.001500 0.082500 0.000000
0.002000 0.082500 0.000000
0.002500 0.082500 0.000000
0.003000 0.082500 0.000000
0.003500 0.082500 0.000000
0.004000 0.082500 0.000000
0.004500 0.082500 0.000000
0.000500 0.081250 0.000000
0.001000 0.081250 0.000000
0.001500 0.081250 0.000000
0.002000 0.081250 0.000000
0.002500 0.081250 0.000000
0.003000 0.081250 0.000000
0.003500 0.081250 0.000000
0.004000 0.081250 0.000000
0.004500 0.081250 0.000000
0.000500 0.080000 0.000000
0.001000 0.080000 0.000000
0.001500 0.080000 0.000000
0.002000 0.080000 0.000000
0.002500 0.080000 0.000000
0.003000 0.080000 0.000000
0.003500 0.080000 0.000000
0.004000 0.080000 0.000000
0.004500 0.080000 0.000000
0.000500 0.078750 0.000000
0.001000 0.078750 0.000000
0.001500 0.078750 0.000000
0.002000 0.078750 0.000000
0.002500 0.078750 0.000000
0.003000 0.078750 0.000000
0.003500 0.078750 0.000000
0.004000 0.078750 0.000000
0.004500 0.078750 0.000000
0.000500 0.077500 0.000000
0.001000 0.077500 0.000000
0.001500 0.077500 0.000000
0.002000 0.077500 0.000000
0.002500 0.077500 0.000000
0.003000 0.077500 0.000000
0.003500 0.077500 0.000000
0.004000 0.077500 0.000000
0.004500 0.077500 0.000000
0.000500 0.076250 0.000000
0.001000 0.076250 0.000000
0.001500 0.076250 0.000000
0.002000 0.076250 0.000000
0.002500 0.076250 0.000000
0.003000 0.076250 0.000000
0.003500 0.076250 0.000000
0.004000 0.076250 0.000000
0.004500 0.076250 0.000000
0.000500 0.075000 0.000000
0.001000 0.075000 0.000000
0.001500 0.075000 0.000000
0.002000 0.075000 0.000000
0.002500 0.075000 0.000000
0.003000 0.075000 0.000000
0.003500 0.075000 0.000000
0.004000 0.075000 0.000000
0.004500 0.075000 0.000000
0.000500 0.073750 0.000000
0.001000 0.073750 0.000000
0.001500 0.073750 0.000000
0.002000 0.073750 0.000000
0.002500 0.073750 0.000000
0.003000 0.073750 0.000000
[...]
POINT_DATA 891
SCALARS u1 float
LOOKUP_TABLE default
2e-20
-1e-06
-1e-06
-1e-06
-1e-06
-1e-06
-1e-06
-1e-06
-1e-06
-1e-06
-1e-06
-1e-06
-1e-06
-1e-06
-1e-06
-1e-06
-1e-06
-1e-06
-1e-06
-1e-06
-1e-06
-1e-06
-1e-06
-1e-06
-1e-06
-1e-06
-1e-06
-1e-06
-1e-06
-1e-06
-1e-06
-1e-06
-1e-06
-1e-06
-1e-06
-1e-06
-1e-06
-1e-06
-1e-06
-1e-06
-1e-06
-1e-06
-1e-06
-1e-06
-1e-06
-1e-06
-1e-06
-1e-06
-1e-06
-1e-06
-1e-06
-1e-06
-1e-06
-1e-06
-1e-06
-1e-06
-1e-06
-1e-06
-1e-06
-1e-06
-1e-06
-1e-06
-1e-06
-1e-06
-1e-06
-1e-06
-1e-06
-1e-06
-1e-06
-1e-06
-1e-06
-1e-06
-1e-06
-1e-06
-1e-06
-1e-06
-1e-06
-1e-06
-2e-06
-1e-06
-1e-06
1e-06
2e-19
1e-06
1e-06
2e-06
1e-06
1e-06
1e-06
1e-06
1e-06
1e-06
1e-06
1e-06
1e-06
1e-06
1e-06
1e-06
1e-06
1e-06
1e-06
1e-06
1e-06
1e-06
1e-06
1e-06
1e-06
1e-06
1e-06
1e-06
1e-06
1e-06
1e-06
1e-06
1e-06
1e-06
1e-06
1e-06
1e-06
1e-06
1e-06
1e-06
1e-06
1e-06
1e-06
1e-06
1e-06
1e-06
1e-06
1e-06
1e-06
1e-06
1e-06
1e-06
1e-06
1e-06
1e-06
1e-06
1e-06
1e-06
1e-06
1e-06
1e-06
1e-06
1e-06
1e-06
1e-06
1e-06
1e-06
1e-06
1e-06
1e-06
1e-06
1e-06
1e-06
1e-06
1e-06
1e-06
1e-06
1e-06
1e-06
1e-06
1e-06
9e-07
6e-07
3e-07
-3e-16
-3e-07
-6e-07
-9e-07
-1e-06
7e-19
1e-19
-1e-20
-1e-19
-1e-19
-5e-20
-2e-21
-1e-19
2e-19
8e-07
6e-07
4e-07
2e-07
-6e-17
-2e-07
-4e-07
-6e-07
-8e-07
1e-06
9e-07
6e-07
3e-07
-1e-16
-3e-07
-6e-07
-9e-07
-1e-06
1e-06
9e-07
6e-07
3e-07
-2e-16
-3e-07
-6e-07
-9e-07
-1e-06
1e-06
9e-07
6e-07
3e-07
-3e-16
-3e-07
-6e-07
-9e-07
-1e-06
1e-06
9e-07
6e-07
3e-07
-3e-16
-3e-07
-6e-07
-9e-07
-1e-06
1e-06
9e-07
6e-07
3e-07
-4e-16
-3e-07
-6e-07
-9e-07
-1e-06
1e-06
9e-07
6e-07
3e-07
-4e-16
-3e-07
-6e-07
-9e-07
-1e-06
1e-06
9e-07
6e-07
3e-07
-4e-16
-3e-07
-6e-07
-9e-07
-1e-06
1e-06
9e-07
6e-07
3e-07
-4e-16
-3e-07
-6e-07
-9e-07
-1e-06
1e-06
9e-07
6e-07
3e-07
-4e-16
-3e-07
-6e-07
-9e-07
-1e-06
1e-06
9e-07
6e-07
3e-07
-4e-16
-3e-07
-6e-07
-9e-07
-1e-06
1e-06
9e-07
6e-07
3e-07
-4e-16
-3e-07
-6e-07
-9e-07
-1e-06
1e-06
9e-07
6e-07
3e-07
-4e-16
-3e-07
-6e-07
-9e-07
-1e-06
1e-06
9e-07
6e-07
3e-07
-4e-16
-3e-07
-6e-07
-9e-07
-1e-06
1e-06
9e-07
6e-07
3e-07
-4e-16
-3e-07
-6e-07
-9e-07
-1e-06
1e-06
9e-07
6e-07
3e-07
-4e-16
-3e-07
-6e-07
-9e-07
-1e-06
1e-06
9e-07
6e-07
3e-07
-4e-16
-3e-07
-6e-07
-9e-07
-1e-06
1e-06
9e-07
6e-07
3e-07
-3e-16
-3e-07
-6e-07
-9e-07
-1e-06
1e-06
9e-07
6e-07
3e-07
-3e-16
-3e-07
-6e-07
-9e-07
-1e-06
1e-06
9e-07
6e-07
3e-07
-3e-16
-3e-07
-6e-07
-9e-07
-1e-06
1e-06
9e-07
6e-07
3e-07
-3e-16
-3e-07
-6e-07
-9e-07
-1e-06
1e-06
9e-07
6e-07
3e-07
-3e-16
-3e-07
-6e-07
-9e-07
-1e-06
1e-06
9e-07
6e-07
3e-07
-3e-16
-3e-07
-6e-07
-9e-07
-1e-06
1e-06
9e-07
6e-07
3e-07
-3e-16
-3e-07
-6e-07
-9e-07
-1e-06
1e-06
9e-07
6e-07
3e-07
-3e-16
-3e-07
-6e-07
-9e-07
-1e-06
1e-06
9e-07
6e-07
3e-07
-3e-16
-3e-07
-6e-07
-9e-07
-1e-06
1e-06
9e-07
6e-07
3e-07
-3e-16
-3e-07
-6e-07
-9e-07
-1e-06
1e-06
9e-07
6e-07
3e-07
-3e-16
-3e-07
-6e-07
-9e-07
-1e-06
1e-06
9e-07
6e-07
3e-07
-3e-16
-3e-07
-6e-07
-9e-07
-1e-06
1e-06
9e-07
6e-07
3e-07
-3e-16
-3e-07
-6e-07
-9e-07
-1e-06
1e-06
9e-07
6e-07
3e-07
-3e-16
-3e-07
-6e-07
-9e-07
-1e-06
1e-06
9e-07
6e-07
3e-07
-3e-16
-3e-07
-6e-07
-9e-07
-1e-06
1e-06
9e-07
6e-07
3e-07
-3e-16
-3e-07
-6e-07
-9e-07
-1e-06
1e-06
9e-07
6e-07
3e-07
-3e-16
-3e-07
-6e-07
-9e-07
-1e-06
1e-06
9e-07
6e-07
3e-07
-3e-16
-3e-07
-6e-07
-9e-07
-1e-06
1e-06
9e-07
6e-07
3e-07
-3e-16
-3e-07
-6e-07
-9e-07
-1e-06
1e-06
9e-07
6e-07
3e-07
-3e-16
-3e-07
-6e-07
-9e-07
-1e-06
1e-06
9e-07
6e-07
3e-07
-3e-16
-3e-07
-6e-07
-9e-07
-1e-06
1e-06
9e-07
6e-07
3e-07
-3e-16
-3e-07
-6e-07
-9e-07
-1e-06
1e-06
9e-07
6e-07
3e-07
-3e-16
-3e-07
-6e-07
-9e-07
-1e-06
1e-06
9e-07
6e-07
3e-07
-3e-16
-3e-07
-6e-07
-9e-07
-1e-06
1e-06
9e-07
6e-07
3e-07
-3e-16
-3e-07
-6e-07
-9e-07
-1e-06
1e-06
9e-07
6e-07
3e-07
-3e-16
-3e-07
-6e-07
-9e-07
-1e-06
1e-06
9e-07
6e-07
3e-07
-3e-16
-3e-07
-6e-07
-9e-07
-1e-06
1e-06
9e-07
6e-07
3e-07
-3e-16
-3e-07
-6e-07
-9e-07
-1e-06
1e-06
9e-07
6e-07
3e-07
-3e-16
-3e-07
-6e-07
-9e-07
-1e-06
1e-06
9e-07
6e-07
3e-07
-3e-16
-3e-07
-6e-07
-9e-07
-1e-06
1e-06
9e-07
6e-07
3e-07
-3e-16
-3e-07
-6e-07
-9e-07
-1e-06
1e-06
9e-07
6e-07
3e-07
-3e-16
-3e-07
-6e-07
-9e-07
-1e-06
1e-06
9e-07
6e-07
3e-07
-3e-16
-3e-07
-6e-07
-9e-07
-1e-06
1e-06
9e-07
6e-07
3e-07
-3e-16
-3e-07
-6e-07
-9e-07
-1e-06
1e-06
9e-07
6e-07
3e-07
-3e-16
-3e-07
-6e-07
-9e-07
-1e-06
1e-06
9e-07
6e-07
3e-07
-3e-16
-3e-07
-6e-07
-9e-07
-1e-06
1e-06
9e-07
6e-07
3e-07
-3e-16
-3e-07
-6e-07
-9e-07
-1e-06
1e-06
9e-07
6e-07
3e-07
-3e-16
-3e-07
-6e-07
-9e-07
-1e-06
1e-06
9e-07
6e-07
3e-07
-3e-16
-3e-07
-6e-07
-9e-07
-1e-06
1e-06
9e-07
6e-07
3e-07
-3e-16
-3e-07
-6e-07
-9e-07
-1e-06
1e-06
9e-07
6e-07
3e-07
-3e-16
-3e-07
-6e-07
-9e-07
-1e-06
1e-06
9e-07
6e-07
3e-07
-3e-16
-3e-07
-6e-07
-9e-07
-1e-06
1e-06
9e-07
6e-07
3e-07
-3e-16
-3e-07
-6e-07
-9e-07
-1e-06
1e-06
9e-07
6e-07
3e-07
-3e-16
-3e-07
-6e-07
-9e-07
-1e-06
1e-06
9e-07
6e-07
3e-07
-3e-16
-3e-07
-6e-07
-9e-07
-1e-06
1e-06
9e-07
6e-07
3e-07
-3e-16
-3e-07
-6e-07
-9e-07
-1e-06
1e-06
9e-07
6e-07
3e-07
-3e-16
-3e-07
-6e-07
-9e-07
-1e-06
1e-06
9e-07
6e-07
3e-07
-3e-16
-3e-07
-6e-07
-9e-07
-1e-06
1e-06
9e-07
6e-07
3e-07
-3e-16
-3e-07
-6e-07
-9e-07
-1e-06
1e-06
9e-07
6e-07
3e-07
-3e-16
-3e-07
-6e-07
-9e-07
-1e-06
1e-06
9e-07
6e-07
3e-07
-3e-16
-3e-07
-6e-07
-9e-07
-1e-06
1e-06
9e-07
6e-07
3e-07
-3e-16
-3e-07
-6e-07
-9e-07
-1e-06
1e-06
9e-07
6e-07
3e-07
-3e-16
-3e-07
-6e-07
-9e-07
-1e-06
1e-06
9e-07
6e-07
3e-07
-3e-16
-3e-07
-6e-07
-9e-07
-1e-06
1e-06
9e-07
6e-07
3e-07
-3e-16
-3e-07
-6e-07
-9e-07
-1e-06
1e-06
9e-07
6e-07
3e-07
-3e-16
-3e-07
-6e-07
-9e-07
-1e-06
1e-06
9e-07
6e-07
3e-07
-3e-16
-3e-07
-6e-07
-9e-07
-1e-06
1e-06
9e-07
6e-07
3e-07
-3e-16
-3e-07
-6e-07
-9e-07
-1e-06
1e-06
9e-07
6e-07
3e-07
-3e-16
-3e-07
-6e-07
-9e-07
-1e-06
1e-06
9e-07
6e-07
3e-07
-3e-16
-3e-07
-6e-07
-9e-07
-1e-06
1e-06
9e-07
6e-07
3e-07
-3e-16
-3e-07
-6e-07
-9e-07
-1e-06
1e-06
9e-07
6e-07
3e-07
-3e-16
-3e-07
-6e-07
-9e-07
-1e-06
SCALARS u2 float
LOOKUP_TABLE default
-7e-19
-0.0004
-0.0004
-0.0004
-0.0004
-0.0004
-0.0004
-0.0004
-0.0004
-0.0004
-0.0004
-0.0004
-0.0003
-0.0003
-0.0003
-0.0003
-0.0003
-0.0003
-0.0003
-0.0003
-0.0003
-0.0003
-0.0003
-0.0003
-0.0003
-0.0003
-0.0003
-0.0003
-0.0003
-0.0003
-0.0003
-0.0003
-0.0002
-0.0002
-0.0002
-0.0002
-0.0002
-0.0002
-0.0002
-0.0002
-0.0002
-0.0002
-0.0002
-0.0002
-0.0002
-0.0002
-0.0002
-0.0002
-0.0002
-0.0002
-0.0002
-0.0002
-0.0001
-0.0001
-0.0001
-0.0001
-0.0001
-0.0001
-0.0001
-0.0001
-0.0001
-0.0001
-9e-05
-9e-05
-8e-05
-8e-05
-7e-05
-7e-05
-6e-05
-6e-05
-5e-05
-5e-05
-4e-05
-4e-05
-3e-05
-3e-05
-2e-05
-2e-05
-1e-05
-1e-05
-5e-06
-0.0004
7e-19
-5e-06
-1e-05
-1e-05
-2e-05
-2e-05
-3e-05
-3e-05
-4e-05
-4e-05
-5e-05
-5e-05
-6e-05
-6e-05
-7e-05
-7e-05
-8e-05
-8e-05
-9e-05
-9e-05
-0.0001
-0.0001
-0.0001
-0.0001
-0.0001
-0.0001
-0.0001
-0.0001
-0.0001
-0.0001
-0.0002
-0.0002
-0.0002
-0.0002
-0.0002
-0.0002
-0.0002
-0.0002
-0.0002
-0.0002
-0.0002
-0.0002
-0.0002
-0.0002
-0.0002
-0.0002
-0.0002
-0.0002
-0.0002
-0.0002
-0.0003
-0.0003
-0.0003
-0.0003
-0.0003
-0.0003
-0.0003
-0.0003
-0.0003
-0.0003
-0.0003
-0.0003
-0.0003
-0.0003
-0.0003
-0.0003
-0.0003
-0.0003
-0.0003
-0.0003
-0.0004
-0.0004
-0.0004
-0.0004
-0.0004
-0.0004
-0.0004
-0.0004
-0.0004
-0.0004
-0.0004
-0.0004
-0.0004
-0.0004
-0.0004
-0.0004
-0.0004
-0.0004
-0.0004
-1e-18
7e-19
-3e-19
9e-19
3e-19
-9e-20
-1e-18
1e-20
7e-19
-5e-06
-5e-06
-5e-06
-5e-06
-5e-06
-5e-06
-5e-06
-5e-06
-5e-06
-1e-05
-1e-05
-1e-05
-1e-05
-1e-05
-1e-05
-1e-05
-1e-05
-1e-05
-1e-05
-1e-05
-1e-05
-1e-05
-1e-05
-1e-05
-1e-05
-1e-05
-1e-05
-2e-05
-2e-05
-2e-05
-2e-05
-2e-05
-2e-05
-2e-05
-2e-05
-2e-05
-2e-05
-2e-05
-2e-05
-2e-05
-2e-05
-2e-05
-2e-05
-2e-05
-2e-05
-3e-05
-3e-05
-3e-05
-3e-05
-3e-05
-3e-05
-3e-05
-3e-05
-3e-05
-3e-05
-3e-05
-3e-05
-3e-05
-3e-05
-3e-05
-3e-05
-3e-05
-3e-05
-4e-05
-4e-05
-4e-05
-4e-05
-4e-05
-4e-05
-4e-05
-4e-05
-4e-05
-4e-05
-4e-05
-4e-05
-4e-05
-4e-05
-4e-05
-4e-05
-4e-05
-4e-05
-5e-05
-5e-05
-5e-05
-5e-05
-5e-05
-5e-05
-5e-05
-5e-05
-5e-05
-5e-05
-5e-05
-5e-05
-5e-05
-5e-05
-5e-05
-5e-05
-5e-05
-5e-05
-6e-05
-6e-05
-6e-05
-6e-05
-6e-05
-6e-05
-6e-05
-6e-05
-6e-05
-6e-05
-6e-05
-6e-05
-6e-05
-6e-05
-6e-05
-6e-05
-6e-05
-6e-05
-7e-05
-7e-05
-7e-05
-7e-05
-7e-05
-7e-05
-7e-05
-7e-05
-7e-05
-7e-05
-7e-05
-7e-05
-7e-05
-7e-05
-7e-05
-7e-05
-7e-05
-7e-05
-8e-05
-8e-05
-8e-05
-8e-05
-8e-05
-8e-05
-8e-05
-8e-05
-8e-05
-8e-05
-8e-05
-8e-05
-8e-05
-8e-05
-8e-05
-8e-05
-8e-05
-8e-05
-9e-05
-9e-05
-9e-05
-9e-05
-9e-05
-9e-05
-9e-05
-9e-05
-9e-05
-9e-05
-9e-05
-9e-05
-9e-05
-9e-05
-9e-05
-9e-05
-9e-05
-9e-05
-0.0001
-0.0001
-0.0001
-0.0001
-0.0001
-0.0001
-0.0001
-0.0001
-0.0001
-0.0001
-0.0001
-0.0001
-0.0001
-0.0001
-0.0001
-0.0001
-0.0001
-0.0001
-0.0001
-0.0001
-0.0001
-0.0001
-0.0001
-0.0001
-0.0001
-0.0001
-0.0001
-0.0001
-0.0001
-0.0001
-0.0001
-0.0001
-0.0001
-0.0001
-0.0001
-0.0001
-0.0001
-0.0001
-0.0001
-0.0001
-0.0001
-0.0001
-0.0001
-0.0001
-0.0001
-0.0001
-0.0001
-0.0001
-0.0001
-0.0001
-0.0001
-0.0001
-0.0001
-0.0001
-0.0001
-0.0001
-0.0001
-0.0001
-0.0001
-0.0001
-0.0001
-0.0001
-0.0001
-0.0001
-0.0001
-0.0001
-0.0001
-0.0001
-0.0001
-0.0001
-0.0001
-0.0001
-0.0001
-0.0001
-0.0001
-0.0001
-0.0001
-0.0001
-0.0001
-0.0001
-0.0001
-0.0001
-0.0001
-0.0001
-0.0001
-0.0001
-0.0001
-0.0001
-0.0001
-0.0001
-0.0002
-0.0002
-0.0002
-0.0002
-0.0002
-0.0002
-0.0002
-0.0002
-0.0002
-0.0002
-0.0002
-0.0002
-0.0002
-0.0002
-0.0002
-0.0002
-0.0002
-0.0002
-0.0002
-0.0002
-0.0002
-0.0002
-0.0002
-0.0002
-0.0002
-0.0002
-0.0002
-0.0002
-0.0002
-0.0002
-0.0002
-0.0002
-0.0002
-0.0002
-0.0002
-0.0002
-0.0002
-0.0002
-0.0002
-0.0002
-0.0002
-0.0002
-0.0002
-0.0002
-0.0002
-0.0002
-0.0002
-0.0002
-0.0002
-0.0002
-0.0002
-0.0002
-0.0002
-0.0002
-0.0002
-0.0002
-0.0002
-0.0002
-0.0002
-0.0002
-0.0002
-0.0002
-0.0002
-0.0002
-0.0002
-0.0002
-0.0002
-0.0002
-0.0002
-0.0002
-0.0002
-0.0002
-0.0002
-0.0002
-0.0002
-0.0002
-0.0002
-0.0002
-0.0002
-0.0002
-0.0002
-0.0002
-0.0002
-0.0002
-0.0002
-0.0002
-0.0002
-0.0002
-0.0002
-0.0002
-0.0002
-0.0002
-0.0002
-0.0002
-0.0002
-0.0002
-0.0002
-0.0002
-0.0002
-0.0002
-0.0002
-0.0002
-0.0002
-0.0002
-0.0002
-0.0002
-0.0002
-0.0002
-0.0002
-0.0002
-0.0002
-0.0002
-0.0002
-0.0002
-0.0002
-0.0002
-0.0002
-0.0002
-0.0002
-0.0002
-0.0002
-0.0002
-0.0002
-0.0002
-0.0002
-0.0002
-0.0002
-0.0002
-0.0002
-0.0002
-0.0002
-0.0002
-0.0002
-0.0002
-0.0002
-0.0002
-0.0002
-0.0002
-0.0002
-0.0002
-0.0002
-0.0002
-0.0002
-0.0002
-0.0002
-0.0002
-0.0002
-0.0002
-0.0002
-0.0002
-0.0002
-0.0002
-0.0002
-0.0002
-0.0002
-0.0002
-0.0002
-0.0002
-0.0002
-0.0002
-0.0002
-0.0002
-0.0002
-0.0002
-0.0002
-0.0002
-0.0002
-0.0002
-0.0002
-0.0002
-0.0002
-0.0002
-0.0002
-0.0002
-0.0002
-0.0002
-0.0002
-0.0002
-0.0002
-0.0002
-0.0003
-0.0003
-0.0003
-0.0003
-0.0003
-0.0003
-0.0003
-0.0003
-0.0003
-0.0003
-0.0003
-0.0003
-0.0003
-0.0003
-0.0003
-0.0003
-0.0003
-0.0003
-0.0003
-0.0003
-0.0003
-0.0003
-0.0003
-0.0003
-0.0003
-0.0003
-0.0003
-0.0003
-0.0003
-0.0003
-0.0003
-0.0003
-0.0003
-0.0003
-0.0003
-0.0003
-0.0003
-0.0003
-0.0003
-0.0003
-0.0003
-0.0003
-0.0003
-0.0003
-0.0003
-0.0003
-0.0003
-0.0003
-0.0003
-0.0003
-0.0003
-0.0003
-0.0003
-0.0003
-0.0003
-0.0003
-0.0003
-0.0003
-0.0003
-0.0003
-0.0003
-0.0003
-0.0003
-0.0003
-0.0003
-0.0003
-0.0003
-0.0003
-0.0003
-0.0003
-0.0003
-0.0003
-0.0003
-0.0003
-0.0003
-0.0003
-0.0003
-0.0003
-0.0003
-0.0003
-0.0003
-0.0003
-0.0003
-0.0003
-0.0003
-0.0003
-0.0003
-0.0003
-0.0003
-0.0003
-0.0003
-0.0003
-0.0003
-0.0003
-0.0003
-0.0003
-0.0003
-0.0003
-0.0003
-0.0003
-0.0003
-0.0003
-0.0003
-0.0003
-0.0003
-0.0003
-0.0003
-0.0003
-0.0003
-0.0003
-0.0003
-0.0003
-0.0003
-0.0003
-0.0003
-0.0003
-0.0003
-0.0003
-0.0003
-0.0003
-0.0003
-0.0003
-0.0003
-0.0003
-0.0003
-0.0003
-0.0003
-0.0003
-0.0003
-0.0003
-0.0003
-0.0003
-0.0003
-0.0003
-0.0003
-0.0003
-0.0003
-0.0003
-0.0003
-0.0003
-0.0003
-0.0003
-0.0003
-0.0003
-0.0003
-0.0003
-0.0003
-0.0003
-0.0003
-0.0003
-0.0003
-0.0003
-0.0003
-0.0003
-0.0003
-0.0003
-0.0003
-0.0003
-0.0003
-0.0003
-0.0003
-0.0003
-0.0003
-0.0003
-0.0003
-0.0003
-0.0003
-0.0003
-0.0003
-0.0003
-0.0003
-0.0003
-0.0003
-0.0003
-0.0003
-0.0003
-0.0003
-0.0003
-0.0003
-0.0003
-0.0004
-0.0004
-0.0004
-0.0004
-0.0004
-0.0004
-0.0004
-0.0004
-0.0004
-0.0004
-0.0004
-0.0004
-0.0004
-0.0004
-0.0004
-0.0004
-0.0004
-0.0004
-0.0004
-0.0004
-0.0004
-0.0004
-0.0004
-0.0004
-0.0004
-0.0004
-0.0004
-0.0004
-0.0004
-0.0004
-0.0004
-0.0004
-0.0004
-0.0004
-0.0004
-0.0004
-0.0004
-0.0004
-0.0004
-0.0004
-0.0004
-0.0004
-0.0004
-0.0004
-0.0004
-0.0004
-0.0004
-0.0004
-0.0004
-0.0004
-0.0004
-0.0004
-0.0004
-0.0004
-0.0004
-0.0004
-0.0004
-0.0004
-0.0004
-0.0004
-0.0004
-0.0004
-0.0004
-0.0004
-0.0004
-0.0004
-0.0004
-0.0004
-0.0004
-0.0004
-0.0004
-0.0004
-0.0004
-0.0004
-0.0004
-0.0004
-0.0004
-0.0004
-0.0004
-0.0004
-0.0004
-0.0004
-0.0004
-0.0004
-0.0004
-0.0004
-0.0004
-0.0004
-0.0004
-0.0004
SCALARS strain_1 float
LOOKUP_TABLE default
-0.000109
-0.172944
-0.170329
-0.167701
-0.165059
-0.162407
-0.159743
-0.157068
-0.154383
-0.151689
-0.148986
-0.146276
-0.143558
-0.140834
-0.138104
-0.135369
-0.132631
-0.129889
-0.127146
-0.124402
-0.121658
-0.118914
-0.116171
-0.113433
-0.110698
-0.107968
-0.105245
-0.102528
-0.099820
-0.097123
-0.094435
-0.091760
-0.089099
-0.086451
-0.083821
-0.081206
-0.078611
-0.076035
-0.073480
-0.070948
-0.068439
-0.065955
-0.063498
-0.061068
-0.058668
-0.056297
-0.053959
-0.051653
-0.049381
-0.047144
-0.044945
-0.042784
-0.040661
-0.038579
-0.036539
-0.034541
-0.032587
-0.030678
-0.028814
-0.026997
-0.025229
-0.023508
-0.021837
-0.020216
-0.018646
-0.017127
-0.015660
-0.014247
-0.012886
-0.011578
-0.010325
-0.009126
-0.007981
-0.006890
-0.005854
-0.004872
-0.003944
-0.003071
-0.002251
-0.001484
-0.000770
-0.173098
-0.000004
-0.000667
-0.001384
-0.002152
-0.002974
-0.003850
-0.004780
-0.005764
-0.006803
-0.007897
-0.009045
-0.010247
-0.011504
-0.012814
-0.014178
-0.015595
-0.017065
-0.018587
-0.020160
-0.021785
-0.023460
-0.025184
-0.026957
-0.028777
-0.030645
-0.032558
-0.034516
-0.036517
-0.038562
-0.040648
-0.042774
-0.044940
-0.047144
-0.049384
-0.051659
-0.053969
-0.056312
-0.058687
-0.061092
-0.063525
-0.065986
-0.068474
-0.070987
-0.073523
-0.076082
-0.078661
-0.081261
-0.083879
-0.086514
-0.089165
-0.091830
-0.094509
-0.097200
-0.099901
-0.102612
-0.105332
-0.108059
-0.110792
-0.113530
-0.116273
-0.119018
-0.121764
-0.124512
-0.127259
-0.130005
-0.132749
-0.135491
-0.138228
-0.140961
-0.143687
-0.146408
-0.149120
-0.151826
-0.154522
-0.157210
-0.159886
-0.162553
-0.165208
-0.167851
-0.170481
-0.173083
-0.173069
-0.173054
-0.173039
-0.173024
-0.173008
-0.172992
-0.172977
-0.172960
-0.000088
-0.000069
-0.000054
-0.000040
-0.000028
-0.000019
-0.000012
-0.000007
-0.000004
-0.000668
-0.000670
-0.000674
-0.000681
-0.000690
-0.000702
-0.000715
-0.000731
-0.000749
-0.001383
-0.001385
-0.001389
-0.001396
-0.001405
-0.001416
-0.001430
-0.001445
-0.001463
-0.002151
-0.002154
-0.002158
-0.002164
-0.002173
-0.002184
-0.002197
-0.002213
-0.002230
-0.002974
-0.002975
-0.002979
-0.002985
-0.002993
-0.003004
-0.003017
-0.003033
-0.003051
-0.003849
-0.003850
-0.003854
-0.003860
-0.003868
-0.003879
-0.003891
-0.003907
-0.003924
-0.004779
-0.004780
-0.004783
-0.004789
-0.004797
-0.004808
-0.004820
-0.004835
-0.004852
-0.005763
-0.005764
-0.005767
-0.005772
-0.005780
-0.005791
-0.005802
-0.005817
-0.005834
-0.006802
-0.006802
-0.006805
-0.006810
-0.006818
-0.006827
-0.006840
-0.006854
-0.006871
-0.007895
-0.007895
-0.007898
-0.007902
-0.007910
-0.007919
-0.007931
-0.007945
-0.007962
-0.009043
-0.009043
-0.009045
-0.009050
-0.009057
-0.009066
-0.009077
-0.009091
-0.009107
-0.010244
-0.010244
-0.010246
-0.010251
-0.010257
-0.010266
-0.010278
-0.010291
-0.010307
-0.011501
-0.011500
-0.011502
-0.011506
-0.011512
-0.011521
-0.011531
-0.011545
-0.011560
-0.012811
-0.012810
-0.012811
-0.012815
-0.012821
-0.012830
-0.012840
-0.012853
-0.012868
-0.014174
-0.014173
-0.014174
-0.014178
-0.014183
-0.014191
-0.014202
-0.014214
-0.014229
-0.015591
-0.015590
-0.015591
-0.015594
-0.015599
-0.015607
-0.015617
-0.015629
-0.015644
-0.017061
-0.017059
-0.017059
-0.017062
-0.017067
-0.017074
-0.017084
-0.017096
-0.017111
-0.018583
-0.018580
-0.018581
-0.018583
-0.018588
-0.018595
-0.018604
-0.018616
-0.018629
-0.020156
-0.020153
-0.020154
-0.020156
-0.020160
-0.020166
-0.020176
-0.020187
-0.020200
-0.021780
-0.021778
-0.021777
-0.021779
-0.021783
-0.021790
-0.021798
-0.021808
-0.021822
-0.023455
-0.023452
-0.023451
-0.023453
-0.023456
-0.023463
-0.023470
-0.023481
-0.023493
-0.025179
-0.025176
-0.025174
-0.025176
-0.025179
-0.025184
-0.025192
-0.025202
-0.025214
-0.026951
-0.026948
-0.026947
-0.026948
-0.026950
-0.026956
-0.026962
-0.026972
-0.026984
-0.028772
-0.028768
-0.028766
-0.028767
-0.028769
-0.028774
-0.028781
-0.028789
-0.028801
-0.030639
-0.030635
-0.030633
-0.030633
-0.030635
-0.030639
-0.030646
-0.030655
-0.030665
-0.032552
-0.032548
-0.032545
-0.032545
-0.032547
-0.032551
-0.032557
-0.032565
-0.032575
-0.034510
-0.034505
-0.034502
-0.034501
-0.034503
-0.034507
-0.034512
-0.034520
-0.034530
-0.036511
-0.036506
-0.036503
-0.036502
-0.036503
-0.036507
-0.036511
-0.036519
-0.036528
-0.038555
-0.038550
-0.038547
-0.038545
-0.038546
-0.038549
-0.038553
-0.038560
-0.038569
-0.040641
-0.040636
-0.040632
-0.040630
-0.040631
-0.040633
-0.040637
-0.040643
-0.040651
-0.042767
-0.042761
-0.042757
-0.042755
-0.042756
-0.042758
-0.042761
-0.042767
-0.042774
-0.044932
-0.044926
-0.044922
-0.044920
-0.044920
-0.044921
-0.044924
-0.044929
-0.044937
-0.047135
-0.047129
-0.047125
-0.047122
-0.047121
-0.047122
-0.047125
-0.047130
-0.047136
-0.049376
-0.049369
-0.049364
-0.049361
-0.049360
-0.049361
-0.049362
-0.049367
-0.049373
-0.051651
-0.051644
-0.051639
-0.051636
-0.051635
-0.051635
-0.051637
-0.051640
-0.051646
-0.053961
-0.053954
-0.053949
-0.053945
-0.053943
-0.053942
-0.053943
-0.053947
-0.053952
-0.056303
-0.056296
-0.056290
-0.056286
-0.056284
-0.056283
-0.056285
-0.056287
-0.056291
-0.058677
-0.058670
-0.058664
-0.058659
-0.058657
-0.058656
-0.058656
-0.058658
-0.058662
-0.061082
-0.061074
-0.061068
-0.061063
-0.061060
-0.061058
-0.061058
-0.061061
-0.061063
-0.063515
-0.063507
-0.063501
-0.063496
-0.063493
-0.063490
-0.063490
-0.063491
-0.063494
-0.065977
-0.065968
-0.065961
-0.065956
-0.065952
-0.065950
-0.065949
-0.065949
-0.065952
-0.068464
-0.068456
-0.068448
-0.068443
-0.068438
-0.068436
-0.068434
-0.068435
-0.068436
-0.070976
-0.070968
-0.070961
-0.070954
-0.070950
-0.070947
-0.070946
-0.070944
-0.070946
-0.073513
-0.073504
-0.073497
-0.073490
-0.073485
-0.073481
-0.073479
-0.073478
-0.073479
-0.076071
-0.076062
-0.076054
-0.076047
-0.076042
-0.076038
-0.076036
-0.076034
-0.076034
-0.078651
-0.078641
-0.078633
-0.078626
-0.078620
-0.078616
-0.078613
-0.078611
-0.078610
-0.081250
-0.081241
-0.081232
-0.081225
-0.081218
-0.081214
-0.081210
-0.081208
-0.081206
-0.083868
-0.083858
-0.083849
-0.083841
-0.083835
-0.083830
-0.083826
-0.083823
-0.083821
-0.086503
-0.086493
-0.086484
-0.086475
-0.086469
-0.086463
-0.086459
-0.086455
-0.086453
-0.089153
-0.089143
-0.089134
-0.089125
-0.089118
-0.089113
-0.089107
-0.089103
-0.089100
-0.091819
-0.091808
-0.091799
-0.091790
-0.091783
-0.091776
-0.091770
-0.091767
-0.091763
-0.094497
-0.094486
-0.094476
-0.094467
-0.094460
-0.094453
-0.094447
-0.094442
-0.094439
-0.097187
-0.097177
-0.097166
-0.097158
-0.097149
-0.097142
-0.097135
-0.097131
-0.097126
-0.099890
-0.099878
-0.099868
-0.099858
-0.099850
-0.099842
-0.099835
-0.099829
-0.099825
-0.102600
-0.102589
-0.102578
-0.102569
-0.102560
-0.102552
-0.102544
-0.102538
-0.102533
-0.105320
-0.105308
-0.105297
-0.105287
-0.105278
-0.105270
-0.105263
-0.105256
-0.105250
-0.108046
-0.108035
-0.108024
-0.108013
-0.108004
-0.107995
-0.107987
-0.107980
-0.107974
-0.110780
-0.110767
-0.110756
-0.110746
-0.110736
-0.110727
-0.110718
-0.110711
-0.110704
-0.113517
-0.113505
-0.113494
-0.113483
-0.113473
-0.113464
-0.113455
-0.113447
-0.113440
-0.116260
-0.116247
-0.116236
-0.116225
-0.116214
-0.116205
-0.116195
-0.116187
-0.116179
-0.119004
-0.118992