# vtk DataFile Version 2.0
Generated volume Mesh
ASCII
DATASET UNSTRUCTURED_GRID
POINTS 891 float
0.005000 0.100000 0.000000
0.005000 0.000000 0.000000
0.005000 0.001250 0.000000
0.005000 0.002500 0.000000
0.005000 0.003750 0.000000
0.005000 0.005000 0.000000
0.005000 0.006250 0.000000
0.005000 0.007500 0.000000
0.005000 0.008750 0.000000
0.005000 0.010000 0.000000
0.005000 0.011250 0.000000
0.005000 0.012500 0.000000
0.005000 0.013750 0.000000
0.005000 0.015000 0.000000
0.005000 0.016250 0.000000
0.005000 0.017500 0.000000
0.005000 0.018750 0.000000
0.005000 0.020000 0.000000
0.005000 0.021250 0.000000
0.005000 0.022500 0.000000
0.005000 0.023750 0.000000
0.005000 0.025000 0.000000
0.005000 0.026250 0.000000
0.005000 0.027500 0.000000
0.005000 0.028750 0.000000
0.005000 0.030000 0.000000
0.005000 0.031250 0.000000
0.005000 0.032500 0.000000
0.005000 0.033750 0.000000
0.005000 0.035000 0.000000
0.005000 0.036250 0.000000
0.005000 0.037500 0.000000
0.005000 0.038750 0.000000
0.005000 0.040000 0.000000
0.005000 0.041250 0.000000
0.005000 0.042500 0.000000
0.005000 0.043750 0.000000
0.005000 0.045000 0.000000
0.005000 0.046250 0.000000
0.005000 0.047500 0.000000
0.005000 0.048750 0.000000
0.005000 0.050000 0.000000
0.005000 0.051250 0.000000
0.005000 0.052500 0.000000
0.005000 0.053750 0.000000
0.005000 0.055000 0.000000
0.005000 0.056250 0.000000
0.005000 0.057500 0.000000
0.005000 0.058750 0.000000
0.005000 0.060000 0.000000
0.005000 0.061250 0.000000
0.005000 0.062500 0.000000
0.005000 0.063750 0.000000
0.005000 0.065000 0.000000
0.005000 0.066250 0.000000
0.005000 0.067500 0.000000
0.005000 0.068750 0.000000
0.005000 0.070000 0.000000
0.005000 0.071250 0.000000
0.005000 0.072500 0.000000
0.005000 0.073750 0.000000
0.005000 0.075000 0.000000
0.005000 0.076250 0.000000
0.005000 0.077500 0.000000
0.005000 0.078750 0.000000
0.005000 0.080000 0.000000
0.005000 0.081250 0.000000
0.005000 0.082500 0.000000
0.005000 0.083750 0.000000
0.005000 0.085000 0.000000
0.005000 0.086250 0.000000
0.005000 0.087500 0.000000
0.005000 0.088750 0.000000
0.005000 0.090000 0.000000
0.005000 0.091250 0.000000
0.005000 0.092500 0.000000
0.005000 0.093750 0.000000
0.005000 0.095000 0.000000
0.005000 0.096250 0.000000
0.005000 0.097500 0.000000
0.005000 0.098750 0.000000
0.000000 0.000000 0.000000
0.000000 0.100000 0.000000
0.000000 0.098750 0.000000
0.000000 0.097500 0.000000
0.000000 0.096250 0.000000
0.000000 0.095000 0.000000
0.000000 0.093750 0.000000
0.000000 0.092500 0.000000
0.000000 0.091250 0.000000
0.000000 0.090000 0.000000
0.000000 0.088750 0.000000
0.000000 0.087500 0.000000
0.000000 0.086250 0.000000
0.000000 0.085000 0.000000
0.000000 0.083750 0.000000
0.000000 0.082500 0.000000
0.000000 0.081250 0.000000
0.000000 0.080000 0.000000
0.000000 0.078750 0.000000
0.000000 0.077500 0.000000
0.000000 0.076250 0.000000
0.000000 0.075000 0.000000
0.000000 0.073750 0.000000
0.000000 0.072500 0.000000
0.000000 0.071250 0.000000
0.000000 0.070000 0.000000
0.000000 0.068750 0.000000
0.000000 0.067500 0.000000
0.000000 0.066250 0.000000
0.000000 0.065000 0.000000
0.000000 0.063750 0.000000
0.000000 0.062500 0.000000
0.000000 0.061250 0.000000
0.000000 0.060000 0.000000
0.000000 0.058750 0.000000
0.000000 0.057500 0.000000
0.000000 0.056250 0.000000
0.000000 0.055000 0.000000
0.000000 0.053750 0.000000
0.000000 0.052500 0.000000
0.000000 0.051250 0.000000
0.000000 0.050000 0.000000
0.000000 0.048750 0.000000
0.000000 0.047500 0.000000
0.000000 0.046250 0.000000
0.000000 0.045000 0.000000
0.000000 0.043750 0.000000
0.000000 0.042500 0.000000
0.000000 0.041250 0.000000
0.000000 0.040000 0.000000
0.000000 0.038750 0.000000
0.000000 0.037500 0.000000
0.000000 0.036250 0.000000
0.000000 0.035000 0.000000
0.000000 0.033750 0.000000
0.000000 0.032500 0.000000
0.000000 0.031250 0.000000
0.000000 0.030000 0.000000
0.000000 0.028750 0.000000
0.000000 0.027500 0.000000
0.000000 0.026250 0.000000
0.000000 0.025000 0.000000
0.000000 0.023750 0.000000
0.000000 0.022500 0.000000
0.000000 0.021250 0.000000
0.000000 0.020000 0.000000
0.000000 0.018750 0.000000
0.000000 0.017500 0.000000
0.000000 0.016250 0.000000
0.000000 0.015000 0.000000
0.000000 0.013750 0.000000
0.000000 0.012500 0.000000
0.000000 0.011250 0.000000
0.000000 0.010000 0.000000
0.000000 0.008750 0.000000
0.000000 0.007500 0.000000
0.000000 0.006250 0.000000
0.000000 0.005000 0.000000
0.000000 0.003750 0.000000
0.000000 0.002500 0.000000
0.000000 0.001250 0.000000
0.000500 0.000000 0.000000
0.001000 0.000000 0.000000
0.001500 0.000000 0.000000
0.002000 0.000000 0.000000
0.002500 0.000000 0.000000
0.003000 0.000000 0.000000
0.003500 0.000000 0.000000
0.004000 0.000000 0.000000
0.004500 0.000000 0.000000
0.004500 0.100000 0.000000
0.004000 0.100000 0.000000
0.003500 0.100000 0.000000
0.003000 0.100000 0.000000
0.002500 0.100000 0.000000
0.002000 0.100000 0.000000
0.001500 0.100000 0.000000
0.001000 0.100000 0.000000
0.000500 0.100000 0.000000
0.000500 0.098750 0.000000
0.001000 0.098750 0.000000
0.001500 0.098750 0.000000
0.002000 0.098750 0.000000
0.002500 0.098750 0.000000
0.003000 0.098750 0.000000
0.003500 0.098750 0.000000
0.004000 0.098750 0.000000
0.004500 0.098750 0.000000
0.000500 0.097500 0.000000
0.001000 0.097500 0.000000
0.001500 0.097500 0.000000
0.002000 0.097500 0.000000
0.002500 0.097500 0.000000
0.003000 0.097500 0.000000
0.003500 0.097500 0.000000
0.004000 0.097500 0.000000
0.004500 0.097500 0.000000
0.000500 0.096250 0.000000
0.001000 0.096250 0.000000
0.001500 0.096250 0.000000
0.002000 0.096250 0.000000
0.002500 0.096250 0.000000
0.003000 0.096250 0.000000
0.003500 0.096250 0.000000
0.004000 0.096250 0.000000
0.004500 0.096250 0.000000
0.000500 0.095000 0.000000
0.001000 0.095000 0.000000
0.001500 0.095000 0.000000
0.002000 0.095000 0.000000
0.002500 0.095000 0.000000
0.003000 0.095000 0.000000
0.003500 0.095000 0.000000
0.004000 0.095000 0.000000
0.004500 0.095000 0.000000
0.000500 0.093750 0.000000
0.001000 0.093750 0.000000
0.001500 0.093750 0.000000
0.002000 0.093750 0.000000
0.002500 0.093750 0.000000
0.003000 0.093750 0.000000
0.003500 0.093750 0.000000
0.004000 0.093750 0.000000
0.004500 0.093750 0.000000
0.000500 0.092500 0.000000
0.001000 0.092500 0.000000
0.001500 0.092500 0.000000
0.002000 0.092500 0.000000
0.002500 0.092500 0.000000
0.003000 0.092500 0.000000
0.003500 0.092500 0.000000
0.004000 0.092500 0.000000
0.004500 0.092500 0.000000
0.000500 0.091250 0.000000
0.001000 0.091250 0.000000
0.001500 0.091250 0.000000
0.002000 0.091250 0.000000
0.002500 0.091250 0.000000
0.003000 0.091250 0.000000
0.003500 0.091250 0.000000
0.004000 0.091250 0.000000
0.004500 0.091250 0.000000
0.000500 0.090000 0.000000
0.001000 0.090000 0.000000
0.001500 0.090000 0.000000
0.002000 0.090000 0.000000
0.002500 0.090000 0.000000
0.003000 0.090000 0.000000
0.003500 0.090000 0.000000
0.004000 0.090000 0.000000
0.004500 0.090000 0.000000
0.000500 0.088750 0.000000
0.001000 0.088750 0.000000
0.001500 0.088750 0.000000
0.002000 0.088750 0.000000
0.002500 0.088750 0.000000
0.003000 0.088750 0.000000
0.003500 0.088750 0.000000
0.004000 0.088750 0.000000
0.004500 0.088750 0.000000
0.000500 0.087500 0.000000
0.001000 0.087500 0.000000
0.001500 0.087500 0.000000
0.002000 0.087500 0.000000
0.002500 0.087500 0.000000
0.003000 0.087500 0.000000
0.003500 0.087500 0.000000
0.004000 0.087500 0.000000
0.004500 0.087500 0.000000
0.000500 0.086250 0.000000
0.001000 0.086250 0.000000
0.001500 0.086250 0.000000
0.002000 0.086250 0.000000
0.002500 0.086250 0.000000
0.003000 0.086250 0.000000
0.003500 0.086250 0.000000
0.004000 0.086250 0.000000
0.004500 0.086250 0.000000
0.000500 0.085000 0.000000
0.001000 0.085000 0.000000
0.001500 0.085000 0.000000
0.002000 0.085000 0.000000
0.002500 0.085000 0.000000
0.003000 0.085000 0.000000
0.003500 0.085000 0.000000
0.004000 0.085000 0.000000
0.004500 0.085000 0.000000
0.000500 0.083750 0.000000
0.001000 0.083750 0.000000
0.001500 0.083750 0.000000
0.002000 0.083750 0.000000
0.002500 0.083750 0.000000
0.003000 0.083750 0.000000
0.003500 0.083750 0.000000
0.004000 0.083750 0.000000
0.004500 0.083750 0.000000
0.000500 0.082500 0.000000
0.001000 0.082500 0.000000
0.001500 0.082500 0.000000
0.002000 0.082500 0.000000
0.002500 0.082500 0.000000
0.003000 0.082500 0.000000
0.003500 0.082500 0.000000
0.004000 0.082500 0.000000
0.004500 0.082500 0.000000
0.000500 0.081250 0.000000
0.001000 0.081250 0.000000
0.001500 0.081250 0.000000
0.002000 0.081250 0.000000
0.002500 0.081250 0.000000
0.003000 0.081250 0.000000
0.003500 0.081250 0.000000
0.004000 0.081250 0.000000
0.004500 0.081250 0.000000
0.000500 0.080000 0.000000
0.001000 0.080000 0.000000
0.001500 0.080000 0.000000
0.002000 0.080000 0.000000
0.002500 0.080000 0.000000
0.003000 0.080000 0.000000
0.003500 0.080000 0.000000
0.004000 0.080000 0.000000
0.004500 0.080000 0.000000
0.000500 0.078750 0.000000
0.001000 0.078750 0.000000
0.001500 0.078750 0.000000
0.002000 0.078750 0.000000
0.002500 0.078750 0.000000
0.003000 0.078750 0.000000
0.003500 0.078750 0.000000
0.004000 0.078750 0.000000
0.004500 0.078750 0.000000
0.000500 0.077500 0.000000
0.001000 0.077500 0.000000
0.001500 0.077500 0.000000
0.002000 0.077500 0.000000
0.002500 0.077500 0.000000
0.003000 0.077500 0.000000
0.003500 0.077500 0.000000
0.004000 0.077500 0.000000
0.004500 0.077500 0.000000
0.000500 0.076250 0.000000
0.001000 0.076250 0.000000
0.001500 0.076250 0.000000
0.002000 0.076250 0.000000
0.002500 0.076250 0.000000
0.003000 0.076250 0.000000
0.003500 0.076250 0.000000
0.004000 0.076250 0.000000
0.004500 0.076250 0.000000
0.000500 0.075000 0.000000
0.001000 0.075000 0.000000
0.001500 0.075000 0.000000
0.002000 0.075000 0.000000
0.002500 0.075000 0.000000
0.003000 0.075000 0.000000
0.003500 0.075000 0.000000
0.004000 0.075000 0.000000
0.004500 0.075000 0.000000
0.000500 0.073750 0.000000
0.001000 0.073750 0.000000
0.001500 0.073750 0.000000
0.002000 0.073750 0.000000
0.002500 0.073750 0.000000
0.003000 0.073750 0.000000
[...]
POINT_DATA 891
SCALARS u1 float
LOOKUP_TABLE default
4e-18
-1e-06
-1e-06
-1e-06
-1e-06
-1e-06
-1e-06
-1e-06
-1e-06
-1e-06
-1e-06
-1e-06
-1e-06
-1e-06
-1e-06
-1e-06
-1e-06
-1e-06
-1e-06
-1e-06
-1e-06
-1e-06
-1e-06
-1e-06
-1e-06
-1e-06
-1e-06
-1e-06
-1e-06
-1e-06
-1e-06
-1e-06
-1e-06
-1e-06
-1e-06
-1e-06
-1e-06
-1e-06
-1e-06
-1e-06
-1e-06
-1e-06
-1e-06
-1e-06
-1e-06
-1e-06
-1e-06
-1e-06
-1e-06
-1e-06
-1e-06
-1e-06
-1e-06
-1e-06
-1e-06
-1e-06
-1e-06
-1e-06
-1e-06
-1e-06
-1e-06
-1e-06
-1e-06
-1e-06
-1e-06
-1e-06
-1e-06
-1e-06
-1e-06
-1e-06
-1e-06
-1e-06
-1e-06
-1e-06
-1e-06
-1e-06
-1e-06
-1e-06
-2e-06
-1e-06
-1e-06
1e-06
-2e-18
1e-06
1e-06
2e-06
1e-06
1e-06
1e-06
1e-06
1e-06
1e-06
1e-06
1e-06
1e-06
1e-06
1e-06
1e-06
1e-06
1e-06
1e-06
1e-06
1e-06
1e-06
1e-06
1e-06
1e-06
1e-06
1e-06
1e-06
1e-06
1e-06
1e-06
1e-06
1e-06
1e-06
1e-06
1e-06
1e-06
1e-06
1e-06
1e-06
1e-06
1e-06
1e-06
1e-06
1e-06
1e-06
1e-06
1e-06
1e-06
1e-06
1e-06
1e-06
1e-06
1e-06
1e-06
1e-06
1e-06
1e-06
1e-06
1e-06
1e-06
1e-06
1e-06
1e-06
1e-06
1e-06
1e-06
1e-06
1e-06
1e-06
1e-06
1e-06
1e-06
1e-06
1e-06
1e-06
1e-06
1e-06
1e-06
1e-06
1e-06
9e-07
6e-07
3e-07
1e-14
-3e-07
-6e-07
-9e-07
-1e-06
2e-17
2e-18
-3e-17
-8e-18
-3e-18
2e-17
2e-17
2e-17
-2e-17
8e-07
6e-07
4e-07
2e-07
9e-15
-2e-07
-4e-07
-6e-07
-8e-07
1e-06
9e-07
6e-07
3e-07
2e-14
-3e-07
-6e-07
-9e-07
-1e-06
1e-06
9e-07
6e-07
3e-07
2e-14
-3e-07
-6e-07
-9e-07
-1e-06
1e-06
9e-07
6e-07
3e-07
2e-14
-3e-07
-6e-07
-9e-07
-1e-06
1e-06
9e-07
6e-07
3e-07
2e-14
-3e-07
-6e-07
-9e-07
-1e-06
1e-06
9e-07
6e-07
3e-07
2e-14
-3e-07
-6e-07
-9e-07
-1e-06
1e-06
9e-07
6e-07
3e-07
2e-14
-3e-07
-6e-07
-9e-07
-1e-06
1e-06
9e-07
6e-07
3e-07
2e-14
-3e-07
-6e-07
-9e-07
-1e-06
1e-06
9e-07
6e-07
3e-07
2e-14
-3e-07
-6e-07
-9e-07
-1e-06
1e-06
9e-07
6e-07
3e-07
2e-14
-3e-07
-6e-07
-9e-07
-1e-06
1e-06
9e-07
6e-07
3e-07
2e-14
-3e-07
-6e-07
-9e-07
-1e-06
1e-06
9e-07
6e-07
3e-07
2e-14
-3e-07
-6e-07
-9e-07
-1e-06
1e-06
9e-07
6e-07
3e-07
2e-14
-3e-07
-6e-07
-9e-07
-1e-06
1e-06
9e-07
6e-07
3e-07
1e-14
-3e-07
-6e-07
-9e-07
-1e-06
1e-06
9e-07
6e-07
3e-07
1e-14
-3e-07
-6e-07
-9e-07
-1e-06
1e-06
9e-07
6e-07
3e-07
1e-14
-3e-07
-6e-07
-9e-07
-1e-06
1e-06
9e-07
6e-07
3e-07
1e-14
-3e-07
-6e-07
-9e-07
-1e-06
1e-06
9e-07
6e-07
3e-07
1e-14
-3e-07
-6e-07
-9e-07
-1e-06
1e-06
9e-07
6e-07
3e-07
1e-14
-3e-07
-6e-07
-9e-07
-1e-06
1e-06
9e-07
6e-07
3e-07
1e-14
-3e-07
-6e-07
-9e-07
-1e-06
1e-06
9e-07
6e-07
3e-07
1e-14
-3e-07
-6e-07
-9e-07
-1e-06
1e-06
9e-07
6e-07
3e-07
1e-14
-3e-07
-6e-07
-9e-07
-1e-06
1e-06
9e-07
6e-07
3e-07
1e-14
-3e-07
-6e-07
-9e-07
-1e-06
1e-06
9e-07
6e-07
3e-07
1e-14
-3e-07
-6e-07
-9e-07
-1e-06
1e-06
9e-07
6e-07
3e-07
1e-14
-3e-07
-6e-07
-9e-07
-1e-06
1e-06
9e-07
6e-07
3e-07
1e-14
-3e-07
-6e-07
-9e-07
-1e-06
1e-06
9e-07
6e-07
3e-07
1e-14
-3e-07
-6e-07
-9e-07
-1e-06
1e-06
9e-07
6e-07
3e-07
1e-14
-3e-07
-6e-07
-9e-07
-1e-06
1e-06
9e-07
6e-07
3e-07
1e-14
-3e-07
-6e-07
-9e-07
-1e-06
1e-06
9e-07
6e-07
3e-07
1e-14
-3e-07
-6e-07
-9e-07
-1e-06
1e-06
9e-07
6e-07
3e-07
1e-14
-3e-07
-6e-07
-9e-07
-1e-06
1e-06
9e-07
6e-07
3e-07
1e-14
-3e-07
-6e-07
-9e-07
-1e-06
1e-06
9e-07
6e-07
3e-07
1e-14
-3e-07
-6e-07
-9e-07
-1e-06
1e-06
9e-07
6e-07
3e-07
1e-14
-3e-07
-6e-07
-9e-07
-1e-06
1e-06
9e-07
6e-07
3e-07
1e-14
-3e-07
-6e-07
-9e-07
-1e-06
1e-06
9e-07
6e-07
3e-07
1e-14
-3e-07
-6e-07
-9e-07
-1e-06
1e-06
9e-07
6e-07
3e-07
1e-14
-3e-07
-6e-07
-9e-07
-1e-06
1e-06
9e-07
6e-07
3e-07
1e-14
-3e-07
-6e-07
-9e-07
-1e-06
1e-06
9e-07
6e-07
3e-07
1e-14
-3e-07
-6e-07
-9e-07
-1e-06
1e-06
9e-07
6e-07
3e-07
1e-14
-3e-07
-6e-07
-9e-07
-1e-06
1e-06
9e-07
6e-07
3e-07
1e-14
-3e-07
-6e-07
-9e-07
-1e-06
1e-06
9e-07
6e-07
3e-07
1e-14
-3e-07
-6e-07
-9e-07
-1e-06
1e-06
9e-07
6e-07
3e-07
1e-14
-3e-07
-6e-07
-9e-07
-1e-06
1e-06
9e-07
6e-07
3e-07
1e-14
-3e-07
-6e-07
-9e-07
-1e-06
1e-06
9e-07
6e-07
3e-07
1e-14
-3e-07
-6e-07
-9e-07
-1e-06
1e-06
9e-07
6e-07
3e-07
1e-14
-3e-07
-6e-07
-9e-07
-1e-06
1e-06
9e-07
6e-07
3e-07
1e-14
-3e-07
-6e-07
-9e-07
-1e-06
1e-06
9e-07
6e-07
3e-07
1e-14
-3e-07
-6e-07
-9e-07
-1e-06
1e-06
9e-07
6e-07
3e-07
1e-14
-3e-07
-6e-07
-9e-07
-1e-06
1e-06
9e-07
6e-07
3e-07
1e-14
-3e-07
-6e-07
-9e-07
-1e-06
1e-06
9e-07
6e-07
3e-07
1e-14
-3e-07
-6e-07
-9e-07
-1e-06
1e-06
9e-07
6e-07
3e-07
1e-14
-3e-07
-6e-07
-9e-07
-1e-06
1e-06
9e-07
6e-07
3e-07
1e-14
-3e-07
-6e-07
-9e-07
-1e-06
1e-06
9e-07
6e-07
3e-07
1e-14
-3e-07
-6e-07
-9e-07
-1e-06
1e-06
9e-07
6e-07
3e-07
1e-14
-3e-07
-6e-07
-9e-07
-1e-06
1e-06
9e-07
6e-07
3e-07
1e-14
-3e-07
-6e-07
-9e-07
-1e-06
1e-06
9e-07
6e-07
3e-07
1e-14
-3e-07
-6e-07
-9e-07
-1e-06
1e-06
9e-07
6e-07
3e-07
1e-14
-3e-07
-6e-07
-9e-07
-1e-06
1e-06
9e-07
6e-07
3e-07
1e-14
-3e-07
-6e-07
-9e-07
-1e-06
1e-06
9e-07
6e-07
3e-07
1e-14
-3e-07
-6e-07
-9e-07
-1e-06
1e-06
9e-07
6e-07
3e-07
1e-14
-3e-07
-6e-07
-9e-07
-1e-06
1e-06
9e-07
6e-07
3e-07
1e-14
-3e-07
-6e-07
-9e-07
-1e-06
1e-06
9e-07
6e-07
3e-07
1e-14
-3e-07
-6e-07
-9e-07
-1e-06
1e-06
9e-07
6e-07
3e-07
1e-14
-3e-07
-6e-07
-9e-07
-1e-06
1e-06
9e-07
6e-07
3e-07
1e-14
-3e-07
-6e-07
-9e-07
-1e-06
1e-06
9e-07
6e-07
3e-07
1e-14
-3e-07
-6e-07
-9e-07
-1e-06
1e-06
9e-07
6e-07
3e-07
1e-14
-3e-07
-6e-07
-9e-07
-1e-06
1e-06
9e-07
6e-07
3e-07
1e-14
-3e-07
-6e-07
-9e-07
-1e-06
1e-06
9e-07
6e-07
3e-07
1e-14
-3e-07
-6e-07
-9e-07
-1e-06
1e-06
9e-07
6e-07
3e-07
1e-14
-3e-07
-6e-07
-9e-07
-1e-06
1e-06
9e-07
6e-07
3e-07
1e-14
-3e-07
-6e-07
-9e-07
-1e-06
1e-06
9e-07
6e-07
3e-07
1e-14
-3e-07
-6e-07
-9e-07
-1e-06
1e-06
9e-07
6e-07
3e-07
1e-14
-3e-07
-6e-07
-9e-07
-1e-06
1e-06
9e-07
6e-07
3e-07
1e-14
-3e-07
-6e-07
-9e-07
-1e-06
1e-06
9e-07
6e-07
3e-07
1e-14
-3e-07
-6e-07
-9e-07
-1e-06
1e-06
9e-07
6e-07
3e-07
1e-14
-3e-07
-6e-07
-9e-07
-1e-06
1e-06
9e-07
6e-07
3e-07
1e-14
-3e-07
-6e-07
-9e-07
-1e-06
1e-06
9e-07
6e-07
3e-07
1e-14
-3e-07
-6e-07
-9e-07
-1e-06
1e-06
9e-07
6e-07
3e-07
1e-14
-3e-07
-6e-07
-9e-07
-1e-06
SCALARS u2 float
LOOKUP_TABLE default
-9e-18
-0.0004
-0.0004
-0.0004
-0.0004
-0.0004
-0.0004
-0.0004
-0.0004
-0.0004
-0.0004
-0.0004
-0.0003
-0.0003
-0.0003
-0.0003
-0.0003
-0.0003
-0.0003
-0.0003
-0.0003
-0.0003
-0.0003
-0.0003
-0.0003
-0.0003
-0.0003
-0.0003
-0.0003
-0.0003
-0.0003
-0.0003
-0.0002
-0.0002
-0.0002
-0.0002
-0.0002
-0.0002
-0.0002
-0.0002
-0.0002
-0.0002
-0.0002
-0.0002
-0.0002
-0.0002
-0.0002
-0.0002
-0.0002
-0.0002
-0.0002
-0.0002
-0.0001
-0.0001
-0.0001
-0.0001
-0.0001
-0.0001
-0.0001
-0.0001
-0.0001
-0.0001
-0.0001
-9e-05
-9e-05
-8e-05
-8e-05
-7e-05
-7e-05
-6e-05
-6e-05
-5e-05
-5e-05
-4e-05
-4e-05
-3e-05
-2e-05
-2e-05
-1e-05
-1e-05
-5e-06
-0.0004
-2e-18
-5e-06
-1e-05
-1e-05
-2e-05
-2e-05
-3e-05
-4e-05
-4e-05
-5e-05
-5e-05
-6e-05
-6e-05
-7e-05
-7e-05
-8e-05
-8e-05
-9e-05
-9e-05
-0.0001
-0.0001
-0.0001
-0.0001
-0.0001
-0.0001
-0.0001
-0.0001
-0.0001
-0.0001
-0.0001
-0.0002
-0.0002
-0.0002
-0.0002
-0.0002
-0.0002
-0.0002
-0.0002
-0.0002
-0.0002
-0.0002
-0.0002
-0.0002
-0.0002
-0.0002
-0.0002
-0.0002
-0.0002
-0.0002
-0.0002
-0.0003
-0.0003
-0.0003
-0.0003
-0.0003
-0.0003
-0.0003
-0.0003
-0.0003
-0.0003
-0.0003
-0.0003
-0.0003
-0.0003
-0.0003
-0.0003
-0.0003
-0.0003
-0.0003
-0.0003
-0.0004
-0.0004
-0.0004
-0.0004
-0.0004
-0.0004
-0.0004
-0.0004
-0.0004
-0.0004
-0.0004
-0.0004
-0.0004
-0.0004
-0.0004
-0.0004
-0.0004
-0.0004
-0.0004
2e-17
4e-17
5e-17
-3e-17
-1e-17
-2e-17
-4e-18
-1e-17
3e-17
-5e-06
-5e-06
-5e-06
-5e-06
-5e-06
-5e-06
-5e-06
-5e-06
-5e-06
-1e-05
-1e-05
-1e-05
-1e-05
-1e-05
-1e-05
-1e-05
-1e-05
-1e-05
-1e-05
-1e-05
-1e-05
-1e-05
-1e-05
-1e-05
-1e-05
-1e-05
-1e-05
-2e-05
-2e-05
-2e-05
-2e-05
-2e-05
-2e-05
-2e-05
-2e-05
-2e-05
-2e-05
-2e-05
-2e-05
-2e-05
-2e-05
-2e-05
-2e-05
-2e-05
-2e-05
-3e-05
-3e-05
-3e-05
-3e-05
-3e-05
-3e-05
-3e-05
-3e-05
-3e-05
-4e-05
-4e-05
-4e-05
-4e-05
-4e-05
-4e-05
-4e-05
-4e-05
-4e-05
-4e-05
-4e-05
-4e-05
-4e-05
-4e-05
-4e-05
-4e-05
-4e-05
-4e-05
-5e-05
-5e-05
-5e-05
-5e-05
-5e-05
-5e-05
-5e-05
-5e-05
-5e-05
-5e-05
-5e-05
-5e-05
-5e-05
-5e-05
-5e-05
-5e-05
-5e-05
-5e-05
-6e-05
-6e-05
-6e-05
-6e-05
-6e-05
-6e-05
-6e-05
-6e-05
-6e-05
-6e-05
-6e-05
-6e-05
-6e-05
-6e-05
-6e-05
-6e-05
-6e-05
-6e-05
-7e-05
-7e-05
-7e-05
-7e-05
-7e-05
-7e-05
-7e-05
-7e-05
-7e-05
-7e-05
-7e-05
-7e-05
-7e-05
-7e-05
-7e-05
-7e-05
-7e-05
-7e-05
-8e-05
-8e-05
-8e-05
-8e-05
-8e-05
-8e-05
-8e-05
-8e-05
-8e-05
-8e-05
-8e-05
-8e-05
-8e-05
-8e-05
-8e-05
-8e-05
-8e-05
-8e-05
-9e-05
-9e-05
-9e-05
-9e-05
-9e-05
-9e-05
-9e-05
-9e-05
-9e-05
-9e-05
-9e-05
-9e-05
-9e-05
-9e-05
-9e-05
-9e-05
-9e-05
-9e-05
-0.0001
-0.0001
-0.0001
-0.0001
-0.0001
-0.0001
-0.0001
-0.0001
-0.0001
-0.0001
-0.0001
-0.0001
-0.0001
-0.0001
-0.0001
-0.0001
-0.0001
-0.0001
-0.0001
-0.0001
-0.0001
-0.0001
-0.0001
-0.0001
-0.0001
-0.0001
-0.0001
-0.0001
-0.0001
-0.0001
-0.0001
-0.0001
-0.0001
-0.0001
-0.0001
-0.0001
-0.0001
-0.0001
-0.0001
-0.0001
-0.0001
-0.0001
-0.0001
-0.0001
-0.0001
-0.0001
-0.0001
-0.0001
-0.0001
-0.0001
-0.0001
-0.0001
-0.0001
-0.0001
-0.0001
-0.0001
-0.0001
-0.0001
-0.0001
-0.0001
-0.0001
-0.0001
-0.0001
-0.0001
-0.0001
-0.0001
-0.0001
-0.0001
-0.0001
-0.0001
-0.0001
-0.0001
-0.0001
-0.0001
-0.0001
-0.0001
-0.0001
-0.0001
-0.0001
-0.0001
-0.0001
-0.0001
-0.0001
-0.0001
-0.0001
-0.0001
-0.0001
-0.0001
-0.0001
-0.0001
-0.0001
-0.0001
-0.0001
-0.0001
-0.0001
-0.0001
-0.0001
-0.0001
-0.0001
-0.0002
-0.0002
-0.0002
-0.0002
-0.0002
-0.0002
-0.0002
-0.0002
-0.0002
-0.0002
-0.0002
-0.0002
-0.0002
-0.0002
-0.0002
-0.0002
-0.0002
-0.0002
-0.0002
-0.0002
-0.0002
-0.0002
-0.0002
-0.0002
-0.0002
-0.0002
-0.0002
-0.0002
-0.0002
-0.0002
-0.0002
-0.0002
-0.0002
-0.0002
-0.0002
-0.0002
-0.0002
-0.0002
-0.0002
-0.0002
-0.0002
-0.0002
-0.0002
-0.0002
-0.0002
-0.0002
-0.0002
-0.0002
-0.0002
-0.0002
-0.0002
-0.0002
-0.0002
-0.0002
-0.0002
-0.0002
-0.0002
-0.0002
-0.0002
-0.0002
-0.0002
-0.0002
-0.0002
-0.0002
-0.0002
-0.0002
-0.0002
-0.0002
-0.0002
-0.0002
-0.0002
-0.0002
-0.0002
-0.0002
-0.0002
-0.0002
-0.0002
-0.0002
-0.0002
-0.0002
-0.0002
-0.0002
-0.0002
-0.0002
-0.0002
-0.0002
-0.0002
-0.0002
-0.0002
-0.0002
-0.0002
-0.0002
-0.0002
-0.0002
-0.0002
-0.0002
-0.0002
-0.0002
-0.0002
-0.0002
-0.0002
-0.0002
-0.0002
-0.0002
-0.0002
-0.0002
-0.0002
-0.0002
-0.0002
-0.0002
-0.0002
-0.0002
-0.0002
-0.0002
-0.0002
-0.0002
-0.0002
-0.0002
-0.0002
-0.0002
-0.0002
-0.0002
-0.0002
-0.0002
-0.0002
-0.0002
-0.0002
-0.0002
-0.0002
-0.0002
-0.0002
-0.0002
-0.0002
-0.0002
-0.0002
-0.0002
-0.0002
-0.0002
-0.0002
-0.0002
-0.0002
-0.0002
-0.0002
-0.0002
-0.0002
-0.0002
-0.0002
-0.0002
-0.0002
-0.0002
-0.0002
-0.0002
-0.0002
-0.0002
-0.0002
-0.0002
-0.0002
-0.0002
-0.0002
-0.0002
-0.0002
-0.0002
-0.0002
-0.0002
-0.0002
-0.0002
-0.0002
-0.0002
-0.0002
-0.0002
-0.0002
-0.0002
-0.0002
-0.0002
-0.0002
-0.0002
-0.0002
-0.0002
-0.0002
-0.0002
-0.0003
-0.0003
-0.0003
-0.0003
-0.0003
-0.0003
-0.0003
-0.0003
-0.0003
-0.0003
-0.0003
-0.0003
-0.0003
-0.0003
-0.0003
-0.0003
-0.0003
-0.0003
-0.0003
-0.0003
-0.0003
-0.0003
-0.0003
-0.0003
-0.0003
-0.0003
-0.0003
-0.0003
-0.0003
-0.0003
-0.0003
-0.0003
-0.0003
-0.0003
-0.0003
-0.0003
-0.0003
-0.0003
-0.0003
-0.0003
-0.0003
-0.0003
-0.0003
-0.0003
-0.0003
-0.0003
-0.0003
-0.0003
-0.0003
-0.0003
-0.0003
-0.0003
-0.0003
-0.0003
-0.0003
-0.0003
-0.0003
-0.0003
-0.0003
-0.0003
-0.0003
-0.0003
-0.0003
-0.0003
-0.0003
-0.0003
-0.0003
-0.0003
-0.0003
-0.0003
-0.0003
-0.0003
-0.0003
-0.0003
-0.0003
-0.0003
-0.0003
-0.0003
-0.0003
-0.0003
-0.0003
-0.0003
-0.0003
-0.0003
-0.0003
-0.0003
-0.0003
-0.0003
-0.0003
-0.0003
-0.0003
-0.0003
-0.0003
-0.0003
-0.0003
-0.0003
-0.0003
-0.0003
-0.0003
-0.0003
-0.0003
-0.0003
-0.0003
-0.0003
-0.0003
-0.0003
-0.0003
-0.0003
-0.0003
-0.0003
-0.0003
-0.0003
-0.0003
-0.0003
-0.0003
-0.0003
-0.0003
-0.0003
-0.0003
-0.0003
-0.0003
-0.0003
-0.0003
-0.0003
-0.0003
-0.0003
-0.0003
-0.0003
-0.0003
-0.0003
-0.0003
-0.0003
-0.0003
-0.0003
-0.0003
-0.0003
-0.0003
-0.0003
-0.0003
-0.0003
-0.0003
-0.0003
-0.0003
-0.0003
-0.0003
-0.0003
-0.0003
-0.0003
-0.0003
-0.0003
-0.0003
-0.0003
-0.0003
-0.0003
-0.0003
-0.0003
-0.0003
-0.0003
-0.0003
-0.0003
-0.0003
-0.0003
-0.0003
-0.0003
-0.0003
-0.0003
-0.0003
-0.0003
-0.0003
-0.0003
-0.0003
-0.0003
-0.0003
-0.0003
-0.0003
-0.0003
-0.0003
-0.0003
-0.0003
-0.0003
-0.0004
-0.0004
-0.0004
-0.0004
-0.0004
-0.0004
-0.0004
-0.0004
-0.0004
-0.0004
-0.0004
-0.0004
-0.0004
-0.0004
-0.0004
-0.0004
-0.0004
-0.0004
-0.0004
-0.0004
-0.0004
-0.0004
-0.0004
-0.0004
-0.0004
-0.0004
-0.0004
-0.0004
-0.0004
-0.0004
-0.0004
-0.0004
-0.0004
-0.0004
-0.0004
-0.0004
-0.0004
-0.0004
-0.0004
-0.0004
-0.0004
-0.0004
-0.0004
-0.0004
-0.0004
-0.0004
-0.0004
-0.0004
-0.0004
-0.0004
-0.0004
-0.0004
-0.0004
-0.0004
-0.0004
-0.0004
-0.0004
-0.0004
-0.0004
-0.0004
-0.0004
-0.0004
-0.0004
-0.0004
-0.0004
-0.0004
-0.0004
-0.0004
-0.0004
-0.0004
-0.0004
-0.0004
-0.0004
-0.0004
-0.0004
-0.0004
-0.0004
-0.0004
-0.0004
-0.0004
-0.0004
-0.0004
-0.0004
-0.0004
-0.0004
-0.0004
-0.0004
-0.0004
-0.0004
-0.0004
SCALARS strain_1 float
LOOKUP_TABLE default
-0.000109
-0.173271
-0.170650
-0.168017
-0.165371
-0.162714
-0.160044
-0.157364
-0.154675
-0.151976
-0.149268
-0.146552
-0.143829
-0.141100
-0.138365
-0.135625
-0.132881
-0.130135
-0.127386
-0.124637
-0.121887
-0.119138
-0.116391
-0.113647
-0.110907
-0.108172
-0.105443
-0.102722
-0.100009
-0.097306
-0.094614
-0.091934
-0.089267
-0.086615
-0.083979
-0.081360
-0.078759
-0.076179
-0.073619
-0.071082
-0.068568
-0.066080
-0.063618
-0.061183
-0.058779
-0.056404
-0.054061
-0.051751
-0.049475
-0.047234
-0.045030
-0.042865
-0.040739
-0.038653
-0.036608
-0.034607
-0.032649
-0.030736
-0.028869
-0.027049
-0.025276
-0.023553
-0.021878
-0.020254
-0.018681
-0.017159
-0.015690
-0.014274
-0.012910
-0.011601
-0.010345
-0.009143
-0.007996
-0.006903
-0.005865
-0.004882
-0.003951
-0.003077
-0.002255
-0.001487
-0.000771
-0.173425
-0.000004
-0.000669
-0.001386
-0.002156
-0.002980
-0.003857
-0.004789
-0.005776
-0.006816
-0.007912
-0.009062
-0.010267
-0.011526
-0.012838
-0.014205
-0.015625
-0.017098
-0.018622
-0.020199
-0.021826
-0.023504
-0.025232
-0.027008
-0.028832
-0.030703
-0.032620
-0.034582
-0.036587
-0.038636
-0.040725
-0.042856
-0.045025
-0.047233
-0.049478
-0.051757
-0.054071
-0.056419
-0.058798
-0.061207
-0.063645
-0.066112
-0.068604
-0.071121
-0.073663
-0.076226
-0.078810
-0.081415
-0.084038
-0.086678
-0.089334
-0.092004
-0.094688
-0.097383
-0.100090
-0.102806
-0.105531
-0.108263
-0.111002
-0.113745
-0.116492
-0.119242
-0.121994
-0.124747
-0.127500
-0.130251
-0.133001
-0.135746
-0.138489
-0.141227
-0.143959
-0.146684
-0.149402
-0.152112
-0.154814
-0.157506
-0.160189
-0.162860
-0.165519
-0.168167
-0.170803
-0.173410
-0.173396
-0.173380
-0.173365
-0.173350
-0.173335
-0.173319
-0.173303
-0.173287
-0.000088
-0.000070
-0.000053
-0.000040
-0.000028
-0.000019
-0.000012
-0.000007
-0.000005
-0.000669
-0.000671
-0.000676
-0.000682
-0.000692
-0.000702
-0.000717
-0.000733
-0.000750
-0.001386
-0.001388
-0.001392
-0.001399
-0.001407
-0.001419
-0.001433
-0.001448
-0.001466
-0.002155
-0.002157
-0.002161
-0.002168
-0.002177
-0.002188
-0.002201
-0.002216
-0.002235
-0.002979
-0.002981
-0.002985
-0.002991
-0.002999
-0.003010
-0.003023
-0.003039
-0.003057
-0.003857
-0.003858
-0.003862
-0.003867
-0.003876
-0.003886
-0.003899
-0.003915
-0.003932
-0.004788
-0.004789
-0.004793
-0.004798
-0.004806
-0.004817
-0.004829
-0.004844
-0.004862
-0.005774
-0.005775
-0.005778
-0.005783
-0.005791
-0.005801
-0.005813
-0.005828
-0.005845
-0.006815
-0.006815
-0.006818
-0.006824
-0.006831
-0.006841
-0.006853
-0.006867
-0.006884
-0.007910
-0.007910
-0.007913
-0.007918
-0.007925
-0.007934
-0.007946
-0.007961
-0.007977
-0.009060
-0.009060
-0.009062
-0.009067
-0.009074
-0.009083
-0.009094
-0.009108
-0.009125
-0.010264
-0.010264
-0.010265
-0.010270
-0.010277
-0.010286
-0.010297
-0.010310
-0.010326
-0.011522
-0.011522
-0.011524
-0.011528
-0.011534
-0.011543
-0.011554
-0.011567
-0.011583
-0.012835
-0.012834
-0.012836
-0.012839
-0.012846
-0.012854
-0.012864
-0.012877
-0.012892
-0.014201
-0.014200
-0.014201
-0.014205
-0.014210
-0.014219
-0.014229
-0.014242
-0.014257
-0.015621
-0.015619
-0.015621
-0.015623
-0.015628
-0.015637
-0.015646
-0.015659
-0.015673
-0.017093
-0.017092
-0.017092
-0.017095
-0.017100
-0.017107
-0.017117
-0.017129
-0.017143
-0.018618
-0.018616
-0.018616
-0.018619
-0.018623
-0.018631
-0.018640
-0.018651
-0.018665
-0.020194
-0.020193
-0.020192
-0.020194
-0.020199
-0.020205
-0.020214
-0.020225
-0.020238
-0.021822
-0.021819
-0.021818
-0.021820
-0.021825
-0.021831
-0.021839
-0.021850
-0.021863
-0.023499
-0.023497
-0.023496
-0.023497
-0.023501
-0.023507
-0.023515
-0.023525
-0.023538
-0.025227
-0.025224
-0.025223
-0.025224
-0.025227
-0.025232
-0.025240
-0.025250
-0.025262
-0.027003
-0.026999
-0.026998
-0.026999
-0.027002
-0.027007
-0.027014
-0.027023
-0.027035
-0.028826
-0.028822
-0.028821
-0.028822
-0.028824
-0.028829
-0.028836
-0.028844
-0.028856
-0.030697
-0.030693
-0.030691
-0.030691
-0.030693
-0.030698
-0.030705
-0.030713
-0.030723
-0.032614
-0.032609
-0.032607
-0.032607
-0.032609
-0.032612
-0.032619
-0.032626
-0.032637
-0.034575
-0.034570
-0.034567
-0.034568
-0.034569
-0.034572
-0.034578
-0.034586
-0.034595
-0.036580
-0.036575
-0.036572
-0.036572
-0.036573
-0.036576
-0.036581
-0.036588
-0.036598
-0.038628
-0.038623
-0.038620
-0.038619
-0.038619
-0.038622
-0.038627
-0.038633
-0.038642
-0.040718
-0.040712
-0.040709
-0.040707
-0.040708
-0.040710
-0.040715
-0.040721
-0.040729
-0.042847
-0.042842
-0.042838
-0.042837
-0.042836
-0.042839
-0.042842
-0.042848
-0.042855
-0.045018
-0.045011
-0.045008
-0.045005
-0.045005
-0.045007
-0.045009
-0.045015
-0.045022
-0.047225
-0.047219
-0.047214
-0.047211
-0.047211
-0.047212
-0.047215
-0.047219
-0.047226
-0.049469
-0.049462
-0.049458
-0.049455
-0.049453
-0.049454
-0.049456
-0.049461
-0.049467
-0.051749
-0.051742
-0.051737
-0.051734
-0.051732
-0.051732
-0.051734
-0.051738
-0.051743
-0.054063
-0.054056
-0.054050
-0.054047
-0.054045
-0.054045
-0.054046
-0.054049
-0.054054
-0.056410
-0.056403
-0.056397
-0.056393
-0.056390
-0.056390
-0.056391
-0.056394
-0.056398
-0.058789
-0.058781
-0.058775
-0.058771
-0.058768
-0.058767
-0.058767
-0.058769
-0.058773
-0.061198
-0.061190
-0.061183
-0.061179
-0.061175
-0.061174
-0.061174
-0.061176
-0.061180
-0.063636
-0.063627
-0.063621
-0.063616
-0.063613
-0.063611
-0.063611
-0.063612
-0.063614
-0.066101
-0.066093
-0.066086
-0.066081
-0.066077
-0.066075
-0.066074
-0.066074
-0.066077
-0.068594
-0.068585
-0.068578
-0.068573
-0.068568
-0.068565
-0.068564
-0.068564
-0.068565
-0.071111
-0.071102
-0.071095
-0.071089
-0.071084
-0.071081
-0.071079
-0.071079
-0.071080
-0.073652
-0.073643
-0.073635
-0.073629
-0.073624
-0.073620
-0.073618
-0.073617
-0.073617
-0.076215
-0.076206
-0.076198
-0.076191
-0.076186
-0.076182
-0.076180
-0.076178
-0.076177
-0.078800
-0.078790
-0.078782
-0.078775
-0.078769
-0.078765
-0.078761
-0.078760
-0.078759
-0.081404
-0.081394
-0.081386
-0.081379
-0.081372
-0.081368
-0.081364
-0.081361
-0.081360
-0.084027
-0.084017
-0.084008
-0.084000
-0.083994
-0.083988
-0.083984
-0.083982
-0.083980
-0.086666
-0.086656
-0.086646
-0.086639
-0.086633
-0.086627
-0.086622
-0.086619
-0.086617
-0.089322
-0.089312
-0.089302
-0.089294
-0.089287
-0.089281
-0.089276
-0.089272
-0.089269
-0.091992
-0.091982
-0.091971
-0.091964
-0.091956
-0.091949
-0.091944
-0.091940
-0.091936
-0.094676
-0.094665
-0.094655
-0.094646
-0.094638
-0.094632
-0.094626
-0.094621
-0.094617
-0.097371
-0.097361
-0.097350
-0.097341
-0.097333
-0.097326
-0.097320
-0.097314
-0.097310
-0.100078
-0.100067
-0.100056
-0.100047
-0.100038
-0.100031
-0.100024
-0.100018
-0.100013
-0.102793
-0.102783
-0.102772
-0.102763
-0.102754
-0.102745
-0.102739
-0.102732
-0.102726
-0.105518
-0.105507
-0.105496
-0.105486
-0.105478
-0.105469
-0.105461
-0.105454
-0.105448
-0.108251
-0.108239
-0.108228
-0.108218
-0.108208
-0.108200
-0.108191
-0.108184
-0.108178
-0.110988
-0.110977
-0.110965
-0.110955
-0.110945
-0.110936
-0.110928
-0.110920
-0.110913
-0.113732
-0.113720
-0.113708
-0.113698
-0.113688
-0.113678
-0.113669
-0.113661
-0.113654
-0.116479
-0.116467
-0.116455
-0.116444
-0.116434
-0.116424
-0.116415
-0.116406
-0.116399
-0.119229
-0.119216
-0.119205
-0.119194
-0.119183
-0.119173
-0.119163
-0.119155