# vtk DataFile Version 2.0
Generated volume Mesh
ASCII
DATASET UNSTRUCTURED_GRID
POINTS 994 float
-0.416146 -0.294827 0.000000
-0.409251 -0.287252 0.000000
-0.421925 -0.286495 0.000000
-0.410201 -0.303043 0.000000
-0.427538 -0.278049 0.000000
-0.404095 -0.311138 0.000000
-0.432982 -0.269494 0.000000
-0.397829 -0.319111 0.000000
-0.438254 -0.260832 0.000000
-0.391406 -0.326958 0.000000
-0.443353 -0.252067 0.000000
-0.384828 -0.334675 0.000000
-0.448277 -0.243202 0.000000
-0.378098 -0.342260 0.000000
-0.453024 -0.234242 0.000000
-0.371218 -0.349710 0.000000
-0.457592 -0.225188 0.000000
-0.364192 -0.357021 0.000000
-0.461979 -0.216046 0.000000
-0.357021 -0.364192 0.000000
-0.466183 -0.206818 0.000000
-0.349710 -0.371218 0.000000
-0.470203 -0.197508 0.000000
-0.342260 -0.378098 0.000000
-0.474037 -0.188120 0.000000
-0.334675 -0.384828 0.000000
-0.477683 -0.178658 0.000000
-0.326958 -0.391406 0.000000
-0.481141 -0.169126 0.000000
-0.319111 -0.397829 0.000000
-0.484408 -0.159526 0.000000
-0.311138 -0.404095 0.000000
-0.487484 -0.149864 0.000000
-0.303043 -0.410201 0.000000
-0.490368 -0.140141 0.000000
-0.294827 -0.416146 0.000000
-0.493057 -0.130363 0.000000
-0.286495 -0.421925 0.000000
-0.495552 -0.120532 0.000000
-0.278049 -0.427538 0.000000
-0.497851 -0.110654 0.000000
-0.269494 -0.432982 0.000000
-0.499953 -0.100732 0.000000
-0.260832 -0.438254 0.000000
-0.501857 -0.090771 0.000000
-0.252067 -0.443353 0.000000
-0.503563 -0.080774 0.000000
-0.243202 -0.448277 0.000000
-0.505069 -0.070746 0.000000
-0.234242 -0.453024 0.000000
-0.506376 -0.060691 0.000000
-0.225188 -0.457592 0.000000
-0.507482 -0.050612 0.000000
-0.216046 -0.461979 0.000000
-0.508388 -0.040514 0.000000
-0.206818 -0.466183 0.000000
-0.509093 -0.030400 0.000000
-0.197508 -0.470203 0.000000
-0.509597 -0.020274 0.000000
-0.188120 -0.474037 0.000000
-0.509899 -0.010139 0.000000
-0.178658 -0.477683 0.000000
-0.510000 0.000000 0.000000
-0.169126 -0.481141 0.000000
-0.509899 0.010139 0.000000
-0.509597 0.020274 0.000000
-0.159526 -0.484408 0.000000
-0.509093 0.030400 0.000000
-0.149864 -0.487484 0.000000
-0.508388 0.040514 0.000000
-0.140141 -0.490368 0.000000
-0.507482 0.050612 0.000000
-0.130363 -0.493057 0.000000
-0.506376 0.060691 0.000000
-0.120532 -0.495552 0.000000
-0.505069 0.070746 0.000000
-0.110654 -0.497851 0.000000
-0.503563 0.080774 0.000000
-0.100732 -0.499953 0.000000
-0.501857 0.090771 0.000000
-0.090771 -0.501857 0.000000
-0.499953 0.100732 0.000000
-0.080774 -0.503563 0.000000
-0.497851 0.110654 0.000000
-0.070746 -0.505069 0.000000
-0.495552 0.120532 0.000000
-0.060691 -0.506376 0.000000
-0.493057 0.130363 0.000000
-0.050612 -0.507482 0.000000
-0.490368 0.140141 0.000000
-0.040514 -0.508388 0.000000
-0.487484 0.149864 0.000000
-0.484408 0.159526 0.000000
-0.030400 -0.509093 0.000000
-0.020274 -0.509597 0.000000
-0.481141 0.169126 0.000000
-0.010139 -0.509899 0.000000
-0.477683 0.178658 0.000000
0.000000 -0.510000 0.000000
-0.474037 0.188120 0.000000
0.010139 -0.509899 0.000000
-0.470203 0.197508 0.000000
0.020274 -0.509597 0.000000
-0.466183 0.206818 0.000000
0.030400 -0.509093 0.000000
-0.461979 0.216046 0.000000
0.040514 -0.508388 0.000000
-0.457592 0.225188 0.000000
0.050612 -0.507482 0.000000
-0.453024 0.234242 0.000000
0.060691 -0.506376 0.000000
-0.448277 0.243202 0.000000
0.070746 -0.505069 0.000000
-0.443353 0.252067 0.000000
0.080774 -0.503563 0.000000
-0.438254 0.260832 0.000000
0.090771 -0.501857 0.000000
-0.432982 0.269494 0.000000
0.100732 -0.499953 0.000000
-0.427538 0.278049 0.000000
0.110654 -0.497851 0.000000
-0.421925 0.286495 0.000000
0.120532 -0.495552 0.000000
-0.416146 0.294827 0.000000
0.130363 -0.493057 0.000000
-0.410201 0.303043 0.000000
0.140141 -0.490368 0.000000
-0.404095 0.311138 0.000000
0.149864 -0.487484 0.000000
0.159526 -0.484408 0.000000
-0.397829 0.319111 0.000000
0.169126 -0.481141 0.000000
-0.391406 0.326958 0.000000
0.178658 -0.477683 0.000000
-0.384828 0.334675 0.000000
0.188120 -0.474037 0.000000
-0.378098 0.342260 0.000000
0.197508 -0.470203 0.000000
-0.371218 0.349710 0.000000
0.206818 -0.466183 0.000000
-0.364192 0.357021 0.000000
0.216046 -0.461979 0.000000
-0.357021 0.364192 0.000000
0.225188 -0.457592 0.000000
-0.349710 0.371218 0.000000
0.234242 -0.453024 0.000000
-0.342260 0.378098 0.000000
0.243202 -0.448277 0.000000
-0.334675 0.384828 0.000000
0.252067 -0.443353 0.000000
-0.326958 0.391406 0.000000
0.260832 -0.438254 0.000000
-0.319111 0.397829 0.000000
0.269494 -0.432982 0.000000
-0.311138 0.404095 0.000000
0.278049 -0.427538 0.000000
-0.303043 0.410201 0.000000
0.286495 -0.421925 0.000000
-0.294827 0.416146 0.000000
0.294827 -0.416146 0.000000
-0.286495 0.421925 0.000000
0.303043 -0.410201 0.000000
-0.278049 0.427538 0.000000
0.311138 -0.404095 0.000000
-0.269494 0.432982 0.000000
0.319111 -0.397829 0.000000
-0.260832 0.438254 0.000000
0.326958 -0.391406 0.000000
-0.252067 0.443353 0.000000
0.334675 -0.384828 0.000000
-0.243202 0.448277 0.000000
0.342260 -0.378098 0.000000
-0.234242 0.453024 0.000000
0.349710 -0.371218 0.000000
-0.225188 0.457592 0.000000
0.357021 -0.364192 0.000000
-0.216046 0.461979 0.000000
0.364192 -0.357021 0.000000
-0.206818 0.466183 0.000000
0.371218 -0.349710 0.000000
-0.197508 0.470203 0.000000
0.378098 -0.342260 0.000000
-0.188120 0.474037 0.000000
0.384828 -0.334675 0.000000
-0.178658 0.477683 0.000000
0.391406 -0.326958 0.000000
-0.169126 0.481141 0.000000
0.397829 -0.319111 0.000000
-0.159526 0.484408 0.000000
0.404095 -0.311138 0.000000
-0.149864 0.487484 0.000000
0.410201 -0.303043 0.000000
-0.140141 0.490368 0.000000
0.416146 -0.294827 0.000000
-0.130363 0.493057 0.000000
0.421925 -0.286495 0.000000
-0.120532 0.495552 0.000000
0.427538 -0.278049 0.000000
-0.110654 0.497851 0.000000
0.432982 -0.269494 0.000000
-0.100732 0.499953 0.000000
0.438254 -0.260832 0.000000
-0.090771 0.501857 0.000000
0.443353 -0.252067 0.000000
-0.080774 0.503563 0.000000
0.448277 -0.243202 0.000000
-0.070746 0.505069 0.000000
0.453024 -0.234242 0.000000
-0.060691 0.506376 0.000000
0.457592 -0.225188 0.000000
-0.050612 0.507482 0.000000
0.461979 -0.216046 0.000000
-0.040514 0.508388 0.000000
0.466183 -0.206818 0.000000
-0.030400 0.509093 0.000000
0.470203 -0.197508 0.000000
-0.020274 0.509597 0.000000
0.474037 -0.188120 0.000000
-0.010139 0.509899 0.000000
0.477683 -0.178658 0.000000
0.000000 0.510000 0.000000
0.481141 -0.169126 0.000000
0.010139 0.509899 0.000000
0.484408 -0.159526 0.000000
0.020274 0.509597 0.000000
0.487484 -0.149864 0.000000
0.030400 0.509093 0.000000
0.490368 -0.140141 0.000000
0.040514 0.508388 0.000000
0.493057 -0.130363 0.000000
0.050612 0.507482 0.000000
0.495552 -0.120532 0.000000
0.060691 0.506376 0.000000
0.497851 -0.110654 0.000000
0.070746 0.505069 0.000000
0.499953 -0.100732 0.000000
0.080774 0.503563 0.000000
0.501857 -0.090771 0.000000
0.090771 0.501857 0.000000
0.503563 -0.080774 0.000000
0.100732 0.499953 0.000000
0.505069 -0.070746 0.000000
0.110654 0.497851 0.000000
0.506376 -0.060691 0.000000
0.120532 0.495552 0.000000
0.507482 -0.050612 0.000000
0.130363 0.493057 0.000000
0.508388 -0.040514 0.000000
0.140141 0.490368 0.000000
0.509093 -0.030400 0.000000
0.149864 0.487484 0.000000
0.509597 -0.020274 0.000000
0.159526 0.484408 0.000000
0.509899 -0.010139 0.000000
0.169126 0.481141 0.000000
0.510000 0.000000 0.000000
0.178658 0.477683 0.000000
0.509899 0.010139 0.000000
0.188120 0.474037 0.000000
0.509597 0.020274 0.000000
0.197508 0.470203 0.000000
0.509093 0.030400 0.000000
0.206818 0.466183 0.000000
0.508388 0.040514 0.000000
0.216046 0.461979 0.000000
0.507482 0.050612 0.000000
0.225188 0.457592 0.000000
0.506376 0.060691 0.000000
0.234242 0.453024 0.000000
0.505069 0.070746 0.000000
0.243202 0.448277 0.000000
0.503563 0.080774 0.000000
0.252067 0.443353 0.000000
0.501857 0.090771 0.000000
0.260832 0.438254 0.000000
0.499953 0.100732 0.000000
0.269494 0.432982 0.000000
0.497851 0.110654 0.000000
0.278049 0.427538 0.000000
0.495552 0.120532 0.000000
0.286495 0.421925 0.000000
0.493057 0.130363 0.000000
0.294827 0.416146 0.000000
0.490368 0.140141 0.000000
0.303043 0.410201 0.000000
0.487484 0.149864 0.000000
0.311138 0.404095 0.000000
0.484408 0.159526 0.000000
0.319111 0.397829 0.000000
0.481141 0.169126 0.000000
0.326958 0.391406 0.000000
0.477683 0.178658 0.000000
0.334675 0.384828 0.000000
0.474037 0.188120 0.000000
0.342260 0.378098 0.000000
0.470203 0.197508 0.000000
0.349710 0.371218 0.000000
0.466183 0.206818 0.000000
0.357021 0.364192 0.000000
0.461979 0.216046 0.000000
0.364192 0.357021 0.000000
0.457592 0.225188 0.000000
0.371218 0.349710 0.000000
0.453024 0.234242 0.000000
0.378098 0.342260 0.000000
0.448277 0.243202 0.000000
0.384828 0.334675 0.000000
0.443353 0.252067 0.000000
0.391406 0.326958 0.000000
0.438254 0.260832 0.000000
0.397829 0.319111 0.000000
0.432982 0.269494 0.000000
0.404095 0.311138 0.000000
0.427538 0.278049 0.000000
0.410201 0.303043 0.000000
0.421925 0.286495 0.000000
0.416146 0.294827 0.000000
-0.415025 -0.278844 0.000000
-0.403306 -0.295541 0.000000
-0.420627 -0.270320 0.000000
-0.397194 -0.303706 0.000000
-0.426054 -0.261684 0.000000
-0.390916 -0.311745 0.000000
-0.431303 -0.252938 0.000000
-0.384475 -0.319654 0.000000
-0.436373 -0.244088 0.000000
-0.377875 -0.327430 0.000000
-0.441261 -0.235136 0.000000
-0.371117 -0.335070 0.000000
-0.445965 -0.226086 0.000000
-0.364205 -0.342571 0.000000
-0.450484 -0.216942 0.000000
-0.357141 -0.349929 0.000000
-0.454816 -0.207707 0.000000
-0.349929 -0.357141 0.000000
-0.458958 -0.198386 0.000000
-0.342571 -0.364205 0.000000
-0.462910 -0.188983 0.000000
-0.335070 -0.371117 0.000000
-0.466668 -0.179501 0.000000
-0.327430 -0.377875 0.000000
-0.470233 -0.169944 0.000000
-0.319654 -0.384475 0.000000
-0.473602 -0.160317 0.000000
-0.311745 -0.390916 0.000000
-0.476773 -0.150623 0.000000
-0.303706 -0.397194 0.000000
-0.479747 -0.140866 0.000000
-0.295541 -0.403306 0.000000
-0.482520 -0.131050 0.000000
-0.287252 -0.409251 0.000000
-0.485094 -0.121178 0.000000
[...]
POINT_DATA 994
SCALARS u1 float
LOOKUP_TABLE default
-0.1
-0.1
-0.1
-0.09
-0.1
-0.08
-0.1
-0.07
-0.2
-0.06
-0.2
-0.05
-0.2
-0.05
-0.2
-0.04
-0.2
-0.04
-0.2
-0.04
-0.3
-0.04
-0.3
-0.04
-0.3
-0.04
-0.4
-0.04
-0.4
-0.05
-0.4
-0.05
-0.4
-0.05
-0.5
-0.06
-0.5
-0.06
-0.5
-0.07
-0.6
-0.07
-0.6
-0.08
-0.6
-0.08
-0.7
-0.09
-0.7
-0.1
-0.7
-0.1
-0.7
-0.1
-0.7
-0.1
-0.8
-0.1
-0.8
-0.1
-0.8
-0.1
-0.8
-0.2
-0.8
-0.8
-0.2
-0.8
-0.2
-0.8
-0.2
-0.8
-0.2
-0.7
-0.2
-0.7
-0.2
-0.7
-0.2
-0.7
-0.2
-0.7
-0.2
-0.6
-0.2
-0.6
-0.2
-0.6
-0.2
-0.5
-0.2
-0.5
-0.5
-0.2
-0.2
-0.5
-0.2
-0.4
-0.2
-0.4
-0.2
-0.4
-0.2
-0.4
-0.2
-0.4
-0.2
-0.3
-0.2
-0.3
-0.2
-0.3
-0.2
-0.3
-0.2
-0.3
-0.2
-0.3
-0.2
-0.3
-0.2
-0.3
-0.2
-0.3
-0.2
-0.3
-0.2
-0.3
-0.2
-0.2
-0.2
-0.3
-0.2
-0.3
-0.2
-0.3
-0.2
-0.3
-0.2
-0.3
-0.2
-0.3
-0.2
-0.3
-0.2
-0.3
-0.2
-0.3
-0.3
-0.3
-0.3
-0.4
-0.3
-0.4
-0.3
-0.4
-0.3
-0.4
-0.3
-0.4
-0.3
-0.4
-0.3
-0.4
-0.3
-0.4
-0.3
-0.4
-0.3
-0.4
-0.3
-0.4
-0.4
-0.4
-0.4
-0.4
-0.4
-0.4
-0.4
-0.4
-0.4
-0.4
-0.4
-0.4
-0.4
-0.4
-0.4
-0.4
-0.4
-0.4
-0.5
-0.4
-0.5
-0.4
-0.5
-0.4
-0.5
-0.4
-0.5
-0.4
-0.5
-0.4
-0.5
-0.4
-0.5
-0.4
-0.5
-0.3
-0.5
-0.3
-0.5
-0.3
-0.5
-0.3
-0.5
-0.3
-0.5
-0.3
-0.5
-0.2
-0.5
-0.2
-0.5
-0.2
-0.5
-0.2
-0.5
-0.1
-0.5
-0.1
-0.5
-0.07
-0.5
-0.04
-0.5
-0.02
-0.5
0.008
-0.5
0.03
-0.5
0.05
-0.5
0.07
-0.5
0.09
-0.5
0.1
-0.5
0.1
-0.5
0.1
-0.5
0.1
-0.5
0.1
-0.5
0.1
-0.6
0.1
-0.6
0.1
-0.6
0.08
-0.6
0.06
-0.6
0.03
-0.6
0.009
-0.6
-0.02
-0.6
-0.05
-0.6
-0.08
-0.6
-0.1
-0.6
-0.1
-0.6
-0.2
-0.6
-0.2
-0.6
-0.2
-0.6
-0.3
-0.7
-0.3
-0.7
-0.3
-0.7
-0.4
-0.7
-0.4
-0.7
-0.4
-0.7
-0.4
-0.7
-0.5
-0.7
-0.5
-0.7
-0.5
-0.6
-0.5
-0.6
-0.5
-0.6
-0.6
-0.6
-0.6
-0.6
-0.6
-0.6
-0.1
-0.1
-0.1
-0.09
-0.2
-0.08
-0.2
-0.07
-0.2
-0.06
-0.2
-0.05
-0.2
-0.05
-0.2
-0.04
-0.3
-0.04
-0.3
-0.04
-0.3
-0.04
-0.3
-0.04
-0.4
-0.04
-0.4
-0.04
-0.4
-0.05
-0.5
-0.05
-0.5
-0.05
-0.5
-0.06
-0.6
-0.06
-0.6
-0.06
-0.6
-0.07
-0.7
-0.07
-0.7
-0.08
-0.7
-0.08
-0.7
-0.09
-0.7
-0.1
-0.8
-0.1
-0.8
-0.1
-0.8
-0.1
-0.8
-0.1
-0.8
-0.1
-0.8
-0.1
-0.8
-0.1
-0.8
-0.2
-0.8
-0.2
-0.7
-0.2
-0.7
-0.2
-0.7
-0.2
-0.7
-0.2
-0.6
-0.2
-0.6
-0.2
-0.6
-0.2
-0.6
-0.2
-0.5
-0.2
-0.5
-0.2
-0.5
-0.2
-0.5
-0.2
-0.4
-0.2
-0.4
-0.2
-0.4
-0.2
-0.4
-0.2
-0.4
-0.2
-0.3
-0.2
-0.3
-0.2
-0.3
-0.2
-0.3
-0.2
-0.3
-0.2
-0.3
-0.2
-0.3
-0.2
-0.3
-0.3
-0.3
-0.3
-0.3
-0.3
-0.3
-0.3
-0.2
-0.3
-0.2
-0.3
-0.2
-0.3
-0.2
-0.3
-0.2
-0.3
-0.2
-0.3
-0.2
-0.3
-0.2
-0.4
-0.2
-0.4
-0.3
-0.4
-0.3
-0.4
-0.3
-0.4
-0.3
-0.4
-0.3
-0.4
-0.3
-0.4
-0.3
-0.4
-0.3
-0.4
-0.3
-0.4
-0.3
-0.4
-0.3
-0.4
-0.3
-0.4
-0.3
-0.4
-0.4
-0.4
-0.4
-0.4
-0.4
-0.4
-0.4
-0.4
-0.4
-0.4
-0.4
-0.4
-0.4
-0.4
-0.4
-0.4
-0.4
-0.4
-0.4
-0.4
-0.5
-0.4
-0.5
-0.4
-0.5
-0.4
-0.5
-0.4
-0.5
-0.3
-0.5
-0.3
-0.5
-0.3
-0.5
-0.3
-0.5
-0.3
-0.5
-0.3
-0.5
-0.2
-0.5
-0.2
-0.5
-0.2
-0.5
-0.2
-0.5
-0.1
-0.5
-0.1
-0.5
-0.07
-0.5
-0.04
-0.5
-0.02
-0.5
0.007
-0.5
0.03
-0.5
0.05
-0.5
0.07
-0.5
0.09
-0.5
0.1
-0.5
0.1
-0.6
0.1
-0.6
0.1
-0.6
0.1
-0.6
0.1
-0.6
0.1
-0.6
0.1
-0.6
0.08
-0.6
0.06
-0.6
0.03
-0.6
0.008
-0.6
-0.02
-0.6
-0.05
-0.6
-0.08
-0.6
-0.1
-0.6
-0.1
-0.6
-0.2
-0.6
-0.2
-0.7
-0.2
-0.7
-0.3
-0.7
-0.3
-0.7
-0.3
-0.7
-0.4
-0.7
-0.4
-0.7
-0.4
-0.7
-0.4
-0.7
-0.5
-0.6
-0.5
-0.6
-0.5
-0.6
-0.5
-0.6
-0.5
-0.6
-0.6
-0.6
-0.6
-0.6
-0.1
-0.1
-0.1
-0.09
-0.1
-0.08
-0.2
-0.07
-0.2
-0.06
-0.2
-0.05
-0.2
-0.2
-0.05
-0.2
-0.2
-0.04
-0.3
-0.3
-0.04
-0.3
-0.3
-0.04
-0.3
-0.3
-0.04
-0.3
-0.3
-0.04
-0.4
-0.4
-0.04
-0.4
-0.4
-0.04
-0.4
-0.05
-0.5
-0.05
-0.5
-0.05
-0.5
-0.06
-0.6
-0.06
-0.6
-0.06
-0.6
-0.07
-0.6
-0.07
-0.7
-0.08
-0.7
-0.09
-0.09
-0.7
-0.1
-0.09
-0.7
-0.1
-0.1
-0.8
-0.1
-0.1
-0.1
-0.1
-0.8
-0.1
-0.1
-0.8
-0.1
-0.1
-0.8
-0.1
-0.1
-0.8
-0.2
-0.8
-0.2
-0.8
-0.2
-0.8
-0.2
-0.7
-0.2
-0.7
-0.2
-0.7
-0.2
-0.7
-0.2
-0.7
-0.2
-0.6
-0.2
-0.6
-0.2
-0.6
-0.2
-0.6
-0.2
-0.5
-0.5
-0.5
-0.2
-0.5
-0.5
-0.2
-0.4
-0.5
-0.2
-0.4
-0.4
-0.2
-0.4
-0.4
-0.2
-0.4
-0.4
-0.2
-0.4
-0.4
-0.2
-0.3
-0.3
-0.2
-0.3
-0.2
-0.3
-0.2
-0.3
-0.2
-0.3
-0.2
-0.3
-0.2
-0.3
-0.2
-0.3
-0.2
-0.3
-0.2
-0.3
-0.2
-0.3
-0.3
-0.3
-0.2
-0.3
-0.3
-0.2
-0.3
-0.3
-0.2
-0.3
-0.3
-0.2
-0.3
-0.3
-0.2
-0.3
-0.3
-0.2
-0.3
-0.3
-0.2
-0.3
-0.3
-0.2
-0.3
-0.2
-0.4
-0.3
-0.4
-0.3
-0.4
-0.3
-0.4
-0.3
-0.4
-0.3
-0.4
-0.3
-0.4
-0.3
-0.4
-0.3
-0.4
-0.3
-0.4
-0.3
-0.4
-0.3
-0.4
-0.3
-0.3
-0.4
-0.4
-0.4
-0.4
-0.4
-0.4
-0.4
-0.4
-0.4
-0.4
-0.4
-0.4
-0.4
-0.4
-0.4
-0.4
-0.4
-0.4
-0.4
-0.4
-0.4
-0.4
-0.4
-0.4
-0.4
-0.4
-0.4
-0.4
-0.5
-0.4
-0.5
-0.4
-0.5
-0.4
-0.5
-0.4
-0.5
-0.4
-0.5
-0.4
-0.5
-0.3
-0.3
-0.5
-0.3
-0.3
-0.5
-0.3
-0.3
-0.5
-0.3
-0.3
-0.5
-0.3
-0.3
-0.5
-0.2
-0.2
-0.5
-0.2
-0.2
-0.5
-0.2
-0.2
-0.5
-0.2
-0.5
-0.1
-0.5
-0.1
-0.5
-0.08
-0.5
-0.06
-0.5
-0.03
-0.5
-0.01
-0.5
0.02
-0.5
0.04
-0.5
0.06
-0.5
0.08
-0.5
0.1
-0.5
0.1
-0.5
0.1
-0.5
0.1
-0.5
-0.5
0.1
-0.6
-0.6
0.1
-0.6
-0.6
0.1
-0.6
-0.6
0.1
-0.6
-0.6
0.09
-0.6
-0.6
0.07
-0.6
-0.6
0.05
-0.6
0.02
-0.6
-0.006
-0.6
-0.04
-0.6
-0.07
-0.6
-0.1
-0.6
-0.1
-0.6
-0.2
-0.6
-0.2
-0.6
-0.2
-0.6
-0.3
-0.7
-0.3
-0.3
-0.7
-0.3
-0.3
-0.7
-0.3
-0.4
-0.7
-0.4
-0.4
-0.7
-0.4
-0.4
-0.7
-0.4
-0.4
-0.7
-0.5
-0.5
-0.7
-0.5
-0.7
-0.5
-0.6
-0.5
-0.6
-0.5
-0.6
-0.5
-0.6
-0.6
-0.6
-0.6
-0.6
-0.6
SCALARS u2 float
LOOKUP_TABLE default
-0.3
-0.3
-0.3
-0.3
-0.3
-0.3
-0.3
-0.3
-0.3
-0.3
-0.3
-0.3
-0.3
-0.2
-0.4
-0.2
-0.4
-0.2
-0.4
-0.2
-0.4
-0.2
-0.4
-0.2
-0.4
-0.2
-0.4
-0.2
-0.4
-0.2
-0.4
-0.3
-0.4
-0.3
-0.5
-0.3
-0.5
-0.3
-0.5
-0.3
-0.5
-0.3
-0.5
-0.3
-0.5
-0.3
-0.5
-0.3
-0.5
-0.3
-0.5
-0.3
-0.5
-0.4
-0.5
-0.4
-0.5
-0.4
-0.5
-0.4
-0.5
-0.4
-0.5
-0.5
-0.5
-0.5
-0.5
-0.5
-0.5
-0.5
-0.5
-0.5
-0.6
-0.5
-0.6
-0.5
-0.6
-0.5
-0.6
-0.5
-0.7
-0.5
-0.7
-0.5
-0.7
-0.5
-0.7
-0.5
-0.7
-0.5
-0.8
-0.5
-0.5
-0.8
-0.8
-0.5
-0.8
-0.5
-0.8
-0.5
-0.8
-0.6
-0.8
-0.6
-0.8
-0.6
-0.7
-0.6
-0.7
-0.6
-0.7
-0.6
-0.7
-0.6
-0.6
-0.6
-0.6
-0.6
-0.6
-0.6
-0.6
-0.6
-0.5
-0.6
-0.5
-0.6
-0.5
-0.6
-0.4
-0.4
-0.6
-0.4
-0.6
-0.3
-0.6
-0.3
-0.6
-0.3
-0.6
-0.3
-0.6
-0.2
-0.6
-0.2
-0.6
-0.2
-0.6
-0.2
-0.6
-0.2
-0.6
-0.1
-0.6
-0.1
-0.6
-0.1
-0.6
-0.1
-0.6
-0.09
-0.6
-0.07
-0.6
-0.06
-0.5
-0.05
-0.5
-0.04
-0.5
-0.04
-0.5
-0.03
-0.5
-0.03
-0.5
-0.02
-0.4
-0.02
-0.4
-0.02
-0.4
-0.02
-0.4
-0.02
-0.3
-0.03
-0.3
-0.03
-0.3
-0.03
-0.2
-0.04
-0.2
-0.04
-0.2
-0.05
-0.1
-0.05
-0.1
-0.06
-0.07
-0.06
-0.04
-0.07
-0.02
-0.08
0.01
-0.08
0.04
-0.09
0.06
-0.1
0.08
-0.1
0.1
-0.1
0.1
-0.1
0.1
-0.1
0.1
-0.1
0.1
-0.2
0.1
-0.2
0.1
-0.2
0.1
-0.2
0.09
-0.2
0.07
-0.2
0.05
-0.2
0.03
-0.2
0.004
-0.2
-0.02
-0.2
-0.05
-0.2
-0.07
-0.2
-0.1
-0.2
-0.1
-0.2
-0.2
-0.2
-0.2
-0.2
-0.2
-0.2
-0.2
-0.2
-0.3
-0.2
-0.3
-0.2
-0.3
-0.2
-0.3
-0.2
-0.3
-0.2
-0.3
-0.2
-0.4
-0.2
-0.4
-0.2
-0.4
-0.2
-0.4
-0.2
-0.4
-0.2
-0.4
-0.2
-0.4
-0.2
-0.4
-0.2
-0.4
-0.2
-0.4
-0.3
-0.4
-0.3
-0.4
-0.3
-0.4
-0.3
-0.4
-0.3
-0.4
-0.3
-0.4
-0.3
-0.4
-0.3
-0.4
-0.3
-0.4
-0.3
-0.4
-0.4
-0.4
-0.4
-0.4
-0.4
-0.4
-0.4
-0.4
-0.3
-0.3
-0.3
-0.3
-0.3
-0.3
-0.3
-0.3
-0.3
-0.2
-0.3
-0.2
-0.3
-0.2
-0.3
-0.2
-0.4
-0.2
-0.4
-0.2
-0.4
-0.2
-0.4
-0.2
-0.4
-0.2
-0.4
-0.3
-0.4
-0.3
-0.4
-0.3
-0.4
-0.3
-0.4
-0.3
-0.4
-0.3
-0.5
-0.3
-0.5
-0.3
-0.5
-0.3
-0.5
-0.3
-0.5
-0.3
-0.5
-0.4
-0.5
-0.4
-0.5
-0.4
-0.5
-0.4
-0.5
-0.4
-0.5
-0.5
-0.5
-0.5
-0.5
-0.5
-0.5
-0.5
-0.5
-0.6
-0.5
-0.6
-0.5
-0.6
-0.5
-0.6
-0.5
-0.7
-0.5
-0.7
-0.5
-0.7
-0.5
-0.7
-0.5
-0.7
-0.5
-0.8
-0.5
-0.8
-0.5
-0.8
-0.5
-0.8
-0.6
-0.8
-0.6
-0.8
-0.6
-0.8
-0.6
-0.8
-0.6
-0.7
-0.6
-0.7
-0.6
-0.7
-0.6
-0.7
-0.6
-0.6
-0.6
-0.6
-0.6
-0.6
-0.6
-0.6
-0.6
-0.5
-0.6
-0.5
-0.6
-0.5
-0.6
-0.4
-0.6
-0.4
-0.6
-0.4
-0.6
-0.3
-0.6
-0.3
-0.6
-0.3
-0.6
-0.2
-0.6
-0.2
-0.6
-0.2
-0.6
-0.2
-0.6
-0.2
-0.6
-0.2
-0.6
-0.1
-0.6
-0.1
-0.6
-0.1
-0.6
-0.1
-0.6
-0.08
-0.5
-0.07
-0.5
-0.06
-0.5
-0.05
-0.5
-0.04
-0.5
-0.04
-0.5
-0.03
-0.4
-0.02
-0.4
-0.02
-0.4
-0.02
-0.4
-0.02
-0.3
-0.02
-0.3
-0.02
-0.3
-0.03
-0.2
-0.03
-0.2
-0.03
-0.2
-0.04
-0.1
-0.04
-0.1
-0.05
-0.08
-0.05
-0.05
-0.06
-0.02
-0.06
0.01
-0.07
0.04
-0.07
0.06
-0.08
0.08
-0.09
0.1
-0.09
0.1
-0.1
0.1
-0.1
0.1
-0.1
0.1
-0.1
0.1
-0.1
0.1
-0.1
0.1
-0.1
0.09
-0.2
0.07
-0.2
0.05
-0.2
0.03
-0.2
0.003
-0.2
-0.02
-0.2
-0.05
-0.2
-0.07
-0.2
-0.1
-0.2
-0.1
-0.2
-0.2
-0.2
-0.2
-0.2
-0.2
-0.2
-0.2
-0.2
-0.3
-0.2
-0.3
-0.2
-0.3
-0.2
-0.3
-0.2
-0.3
-0.2
-0.4
-0.2
-0.4
-0.2
-0.4
-0.2
-0.4
-0.2
-0.4
-0.2
-0.4
-0.2
-0.4
-0.2
-0.4
-0.3
-0.4
-0.3
-0.4
-0.3
-0.4
-0.3
-0.4
-0.3
-0.4
-0.3
-0.4
-0.3
-0.4
-0.3
-0.4
-0.3
-0.4
-0.3
-0.4
-0.4
-0.4
-0.4
-0.4
-0.4
-0.4
-0.4
-0.4
-0.4
-0.4
-0.4
-0.4
-0.3
-0.3
-0.3
-0.3
-0.3
-0.3
-0.3
-0.3
-0.3
-0.3
-0.3
-0.2
-0.3
-0.3
-0.2
-0.4
-0.4
-0.2
-0.4
-0.4
-0.2
-0.4
-0.4
-0.2
-0.4
-0.4
-0.2
-0.4
-0.4
-0.2
-0.4
-0.4
-0.2
-0.4
-0.4
-0.2
-0.4
-0.3
-0.4
-0.3
-0.4
-0.3
-0.5
-0.3
-0.5
-0.3
-0.5
-0.3
-0.5
-0.3
-0.5
-0.3
-0.5
-0.3
-0.5
-0.3
-0.3
-0.5
-0.4
-0.3
-0.5
-0.4
-0.4
-0.5
-0.4
-0.4
-0.4
-0.4
-0.5
-0.4
-0.4
-0.5
-0.4
-0.5
-0.5
-0.5
-0.5
-0.5
-0.5
-0.5
-0.5
-0.5
-0.6
-0.5
-0.6
-0.5
-0.6
-0.5
-0.6
-0.5
-0.6
-0.5
-0.7
-0.5
-0.7
-0.5
-0.7
-0.5
-0.7
-0.5
-0.7
-0.5
-0.8
-0.5
-0.5
-0.5
-0.8
-0.5
-0.5
-0.8
-0.6
-0.5
-0.8
-0.6
-0.6
-0.8
-0.6
-0.6
-0.8
-0.6
-0.6
-0.7
-0.6
-0.6
-0.7
-0.6
-0.6
-0.7
-0.6
-0.7
-0.6
-0.7
-0.6
-0.6
-0.6
-0.6
-0.6
-0.6
-0.6
-0.5
-0.6
-0.5
-0.6
-0.5
-0.6
-0.4
-0.6
-0.4
-0.4
-0.6
-0.4
-0.4
-0.6
-0.3
-0.3
-0.6
-0.3
-0.3
-0.6
-0.3
-0.3
-0.6
-0.2
-0.3
-0.6
-0.2
-0.2
-0.6
-0.2
-0.2
-0.6
-0.2
-0.6
-0.2
-0.6
-0.2
-0.6
-0.1
-0.6
-0.1
-0.6
-0.1
-0.6
-0.1
-0.6
-0.08
-0.6
-0.07
-0.5
-0.06
-0.5
-0.05
-0.5
-0.04
-0.5
-0.04
-0.5
-0.5
-0.03
-0.5
-0.4
-0.03
-0.4
-0.4
-0.02
-0.4
-0.4
-0.02
-0.4
-0.4
-0.02
-0.3
-0.4
-0.02
-0.3
-0.3
-0.02
-0.3
-0.3
-0.03
-0.3
-0.03
-0.2
-0.03
-0.2
-0.04
-0.2
-0.04
-0.1
-0.05
-0.09
-0.05
-0.06
-0.06
-0.04
-0.06
-0.002
-0.07
0.02
-0.07
-0.08
0.05
-0.08
-0.09
0.07
-0.09
-0.09
0.09
-0.1
-0.1
0.1
-0.1
-0.1
0.1
-0.1
-0.1
0.1
-0.1
-0.1
0.1
-0.1
-0.1
0.1
-0.1
0.1
-0.2
0.1
-0.2
0.09
-0.2
0.08
-0.2
0.06
-0.2
0.04
-0.2
0.02
-0.2
-0.01
-0.2
-0.03
-0.2
-0.06
-0.2
-0.09
-0.2
-0.1
-0.2
-0.1
-0.2
-0.2
-0.2
-0.2
-0.2
-0.2
-0.2
-0.2
-0.2
-0.2
-0.3
-0.2
-0.3
-0.3
-0.2
-0.3
-0.3
-0.2
-0.3
-0.3
-0.2
-0.3
-0.3
-0.2
-0.3
-0.2
-0.4
-0.2
-0.4
-0.2
-0.4
-0.2
-0.4
-0.2
-0.4
-0.2
-0.4
-0.2
-0.4
-0.2
-0.4
-0.2
-0.4
-0.3
-0.4
-0.3
-0.3
-0.4
-0.3
-0.3
-0.4
-0.3
-0.3
-0.4
-0.3
-0.3
-0.4
-0.3
-0.3
-0.4
-0.3
-0.3
-0.4
-0.3
-0.3
-0.4
-0.3
-0.4
-0.3
-0.4
-0.4
-0.4
-0.4
-0.4
-0.4
-0.4
-0.4
-0.4
-0.4
-0.4
-0.4
SCALARS strain_1 float
LOOKUP_TABLE default
-0.649610
-0.425567
0.405161
-1.652519
1.481746
-2.606535
2.613355
-3.502386
3.776826
-4.394532
5.000217
-5.212169
6.267666
-5.996099
7.562074
-6.719963
8.911051
-7.426757
10.297246
-8.061559
11.708955
-8.654190
13.160322
-9.231269
14.655494
-9.747660
16.187635
-10.239038
17.761352
-10.685633
19.349086
-11.085296
20.994734
-11.447584
22.648743
-11.762983
24.336501
-12.048622
26.049188
-12.284999
27.799726
-12.501953
29.565889
-12.692655
31.344233
-12.831524
33.156463
-12.934216
34.977667
-13.027647
36.845151
-13.066162
38.706187
-13.076206
40.540944
-13.059013
42.408006
-13.034659
44.320768
-12.954116
46.200121
-12.875535
48.108507
-12.766020
49.996595
51.887773
-12.616544
53.764437
-12.454545
55.656823
-12.295410
57.513871
-12.103564
59.385591
-11.882464
61.241684
-11.643906
63.065249
-11.406971
64.858466
-11.159766
66.657153
-10.875970
68.410016
-10.586651
70.140191
-10.286752
71.858625
-9.998764
73.534233
-9.670038
75.154562
76.772252
-9.363603
-9.034352
78.346752
-8.714064
79.847739
-8.395744
81.346684
-8.049905
82.771533
-7.719098
84.167633
-7.365550
85.484382
-7.050107
86.770073
-6.708135
87.989259
-6.387539
89.163831
-6.067882
90.279590
-5.754108
91.323282
-5.429182
92.333914
-5.124693
93.251133
-4.819690
94.098317
-4.539650
94.916391
-4.256795
95.649189
-3.984908
96.307334
-3.724988
-3.457864
96.899103
-3.224821
97.444193
-2.996654
97.890781
-2.773420
98.262976
-2.573003
98.580253
-2.378879
98.821032
-2.214320
98.989686
-2.031301
99.086583
-1.873326
99.101203
-1.737575
99.064944
-1.617732
98.930137
-1.519750
98.726510
-1.392667
98.471565
-1.332744
98.139091
-1.271189
97.720276
-1.206884
97.247227
-1.167692
96.689641
-1.136152
96.087943
-1.136459
95.400817
-1.127439
94.650898
-1.163369
93.844228
-1.173749
92.977049
-1.223583
92.033462
-1.278785
91.042897
-1.355981
89.979672
-1.442838
88.880095
-1.521069
87.704292
-1.618113
86.506384
-1.736221
85.229667
-1.872528
83.924868
-2.004148
82.558447
-2.136042
81.167245
-2.307297
79.714278
-2.456507
78.238588
-2.621775
76.714184
-2.800503
75.160301
-2.989334
73.570747
-3.183435
71.944989
-3.379443
70.334935
-3.579139
68.661429
-3.785247
66.961028
-4.013960
65.236839
-4.219427
63.525914
-4.435632
61.782538
-4.642375
60.038150
-4.872434
58.266801
-5.077989
56.509193
-5.312327
54.724501
-5.527645
52.946330
-5.753019
51.170978
-5.977558
49.395700
-6.185149
47.624850
-6.403216
45.867132
-6.629358
44.100543
-6.827009
42.358704
-7.031106
40.627638
-7.224386
38.905588
-7.425666
37.188092
-7.631583
35.507580
-7.792357
33.844446
-7.965158
32.187663
-8.140739
30.564017
-8.275928
28.963005
-8.425927
27.386729
-8.560753
25.847390
-8.683842
24.329056
-8.809898
22.828996
-8.900600
21.382321
-8.982103
19.947961
-9.052708
18.556907
-9.134198
17.175634
-9.160162
15.857611
-9.184113
14.572013
-9.203864
13.298792
-9.171589
12.088185
-9.157868
10.891847
-9.115591
9.750007
-9.060645
8.620887
-8.977192
7.552788
-8.862306
6.497609
-8.745031
5.501697
-8.595143
4.524235
-8.435316
3.607698
-8.234577
2.707376
-7.984382
1.845946
-7.753093
1.034875
-7.483597
0.255082
-7.188087
-0.495392
-6.844363
-1.228053
-6.503915
-1.893102
-6.104743
-2.536224
-5.693958
-3.135690
-5.246431
-3.720320
-4.775558
-4.268396
0.613296
-1.461784
1.748058
-2.432877
2.867406
-3.330298
4.066095
-4.219006
5.318947
-5.063147
6.581803
-5.844403
7.882004
-6.590401
9.247610
-7.297475
10.637612
-7.937099
12.077407
-8.577649
13.549627
-9.136861
15.054312
-9.669227
16.610700
-10.147659
18.195115
-10.595879
19.789987
-10.999252
21.437747
-11.372708
23.118649
-11.702599
24.814573
-11.991655
26.549945
-12.229905
28.291782
-12.449857
30.062008
-12.640288
31.863315
-12.791517
33.673218
-12.898668
35.503638
-12.978877
37.336982
-13.028536
39.196164
-13.032782
41.053834
-13.023651
42.932891
-12.988999
44.810118
-12.933233
46.695263
-12.845439
48.558738
-12.721030
50.425884
-12.595438
52.326470
-12.436750
54.170351
-12.265991
56.030510
-12.076634
57.866623
-11.859950
59.704016
-11.627947
61.491648
-11.393904
63.285874
-11.125135
65.060516
-10.857111
66.787197
-10.571110
68.513233
-10.287183
70.187329
-9.985884
71.819872
-9.679458
73.441388
-9.377741
75.021507
-9.073723
76.536775
-8.737405
78.028641
-8.417953
79.478708
-8.100080
80.854242
-7.775270
82.192024
-7.462166
83.502762
-7.132745
84.727776
-6.810499
85.902655
-6.502120
87.037849
-6.180542
88.102532
-5.877823
89.092736
-5.589899
90.032078
-5.300231
90.898278
-5.005739
91.705662
-4.730884
92.458584
-4.486045
93.134969
-4.217541
93.713300
-3.967948
94.256243
-3.737563
94.705361
-3.525474
95.095527
-3.302240
95.397113
-3.103317
95.649119
-2.933178
95.810930
-2.743546
95.916923
-2.605322
95.932594
-2.438981
95.879107
-2.323694
95.745639
-2.210955
95.552155
-2.108388
95.284172
-2.028058
94.941360
-1.937305
94.520993
-1.888461
94.034925
-1.854482
93.490668
-1.831328
92.856399
-1.812690
92.145977
-1.793039
91.395923
-1.812737
90.575175
-1.839369
89.694153
-1.881070
88.752054
-1.936210
87.746130
-1.977280
86.676523
-2.072687
85.544880
-2.150251
84.393357
-2.256179
83.157205
-2.366875
81.879777
-2.487018
80.559057
-2.598628
79.207444
-2.757205
77.784559
-2.910044
76.315273
-3.060913
74.837792
-3.211802
73.302264
-3.384521
71.733255
-3.568389
70.159753
-3.762007
68.535531
-3.959332
66.885901
-4.149444
65.242816
-4.358023
63.540499
-4.563887
61.845302
-4.759796
60.115668
-4.961899
58.381295
-5.187369
56.644107
-5.398140
54.869584
-5.600401
53.122089
-5.829608
51.361306
-6.045495
49.601081
-6.261828
47.833533
-6.468347
46.067411
-6.671755
44.326069
-6.869634
42.579689
-7.080344
40.851631
-7.265854
39.131817
-7.472607
37.418263
-7.649618
35.755553
-7.819609
34.056238
-7.980202
32.406196
-8.172209
30.772403
-8.330950
29.164109
-8.467466
27.587834
-8.590564
26.040375
-8.738377
24.492136
-8.826970
23.010919
-8.950599
21.534698
-9.044101
20.096858
-9.085797
18.685383
-9.180188
17.318798
-9.207434
15.970680
-9.240305
14.658074
-9.244906
13.394889
-9.254953
12.157847
-9.225763
10.952800
-9.176426
9.805590
-9.128451
8.672965
-9.032998
7.574899
-8.924789
6.521624
-8.805992
5.513589
-8.669819
4.536866
-8.495999
3.597762
-8.305523
2.696264
-8.069386
1.849660
-7.833937
1.001296
-7.569180
0.193391
-7.248007
-0.536737
-6.931449
-1.265747
-6.574843
-1.954371
-6.177704
-2.596252
-5.776622
-3.221213
-5.334276
-4.836233
-3.790450
-4.343512
0.202281
-1.055795
1.091825
-2.041602
2.170989
-2.979918
3.347286
-3.873465
4.537831
-4.726362
5.777480
-5.531573
7.012471
8.029827
-6.378874
9.366727
8.713330
-7.015442
10.782103
10.132656
-7.694112
11.537675
12.262701
-8.308346
12.988171
13.748972
-8.786343
15.244911
14.474036
-9.450527
16.008835
16.805736
-9.969325
18.499902
17.563113
-10.412540
19.661033
-10.847798
21.232118
-11.227797
22.873647
-11.628212
24.562284
-11.877339
26.306679
-12.139849
28.027399
-12.373850
29.755363
-12.563829
31.228551
-12.733219
33.426918
-12.859929
35.244735
-12.960017
-13.022815
37.087923
-13.036253
-13.034266
38.932254
-13.064293
-13.052532
40.800645
-13.048976
-13.049214
-13.013479
-12.995013
43.095187
-12.971753
-12.915055
44.807465
-12.887339
-12.841334
46.717610
-12.779064
-12.709999
48.664001
-12.601146
51.145434
-12.435588
54.333442
-12.278172
55.850802
-12.077168
57.327060
-11.868020
59.522200
-11.651578
61.380782
-11.439474
63.182941
-11.133510
65.287629
-10.861148
66.784131
-10.585719
68.461997
-10.218842
70.147417
-10.007921
71.851110
-9.731518
73.493897
75.026616
76.238794
-9.196870
77.812115
77.029743
-8.756185
79.368128
78.558026
-8.418761
80.031866
80.787754
-8.095326
81.452375
82.212850
-7.811099
82.806166
83.519484
-7.420480
84.131294
84.862773
-7.085963
85.405788
86.206344
-6.758883
87.014374
-6.442923
88.100043
-6.120120
89.169597
-5.758451
90.185760
-5.512881
91.169947
-5.200887
92.045264
-4.930074
92.853891
-4.652126
93.528119
-4.362986
94.374580
-4.101679
95.018933
-3.863712
-3.652695
95.580033
-3.551178
-3.434612
96.060043
-3.322195
-3.197186
96.494286
-3.104873
-2.994035
96.919829
-2.894740
-2.789930
97.115247
-2.618510
-2.699919
97.291450
-2.534938
-2.435861
97.449624
-2.267481
-2.363572
97.506799
-2.149864
97.484749
-2.028257
97.415031
-1.917829
97.237455
-1.815382
97.009817
-1.714183
96.695192
-1.652065
96.312543
-1.588456
95.783148
-1.510156
95.337241
-1.503578
94.783186
-1.471524
94.108675
-1.467960
93.402362
-1.476347
92.633046
-1.507247
91.822701
91.247749
-1.508686
90.594996
90.160116
-1.581073
89.575915
89.133548
-1.653051
88.109171
88.533731
-1.724661
87.489350
86.944534
-1.770719
85.796733
86.362626
-1.890075
85.110745
84.505493
-2.001730
83.202053
83.831924
-2.108634
82.198453
-2.236499
80.879444
-2.380475
79.453701
-2.563979
78.007362
-2.697922
76.522892
-2.853594
75.004003
-3.031579
73.495022
-3.194120
72.177848
-3.368521
70.241177
-3.569785
68.586197
-3.763791
-3.898214
66.921200
-4.032589
-4.122226
65.248280
-4.245007
-4.333223
63.539584
-4.442350
-4.549162
61.431745
-4.647878
-4.743543
60.019644
-4.859887
-4.972278
58.316838
-5.091130
-5.201101
56.568870
-5.305614
-5.411661
54.857447
-5.578455
53.434823
-5.796648
50.910924
-6.004503
49.473604
-6.214143
48.072765
-6.440796
45.959462
-6.630246
44.217313
-6.814854
42.455495
-7.050897
40.355884
-7.262410
38.934361
-7.448017
37.300757
-7.654896
35.618082
-7.831537
33.945401
-7.951887
32.327550
-8.174385
30.765504
-8.275833
29.605303
28.693933
-8.479163
27.958579
27.084894
-8.587795
26.321314
25.562090
-8.703659
24.787798
24.065382
-8.805726
23.294781
22.578235
-8.925193
21.782583
21.054570
-8.999185
20.354772
19.705158
-9.085518
18.913056
-9.146871
17.858940
-9.176929
16.556310
-9.210765
15.255795
-9.222196
13.973046
-9.214186
12.735610
-9.196389
11.543950
-9.147753
10.373870
-9.093144
9.438723
-9.005816
8.092995
-8.903034
7.034529
-8.807643
-8.748616
5.998929
-8.682781
-8.582046
5.008595
-8.500638
-8.398572
4.057668
-8.314175
-8.228626
2.957358
-7.967611
-8.097450