# vtk DataFile Version 2.0
Generated volume Mesh
ASCII
DATASET UNSTRUCTURED_GRID
POINTS 994 float
-0.416146 -0.294827 0.000000
-0.409251 -0.287252 0.000000
-0.421925 -0.286495 0.000000
-0.410201 -0.303043 0.000000
-0.427538 -0.278049 0.000000
-0.404095 -0.311138 0.000000
-0.432982 -0.269494 0.000000
-0.397829 -0.319111 0.000000
-0.438254 -0.260832 0.000000
-0.391406 -0.326958 0.000000
-0.443353 -0.252067 0.000000
-0.384828 -0.334675 0.000000
-0.448277 -0.243202 0.000000
-0.378098 -0.342260 0.000000
-0.453024 -0.234242 0.000000
-0.371218 -0.349710 0.000000
-0.457592 -0.225188 0.000000
-0.364192 -0.357021 0.000000
-0.461979 -0.216046 0.000000
-0.357021 -0.364192 0.000000
-0.466183 -0.206818 0.000000
-0.349710 -0.371218 0.000000
-0.470203 -0.197508 0.000000
-0.342260 -0.378098 0.000000
-0.474037 -0.188120 0.000000
-0.334675 -0.384828 0.000000
-0.477683 -0.178658 0.000000
-0.326958 -0.391406 0.000000
-0.481141 -0.169126 0.000000
-0.319111 -0.397829 0.000000
-0.484408 -0.159526 0.000000
-0.311138 -0.404095 0.000000
-0.487484 -0.149864 0.000000
-0.303043 -0.410201 0.000000
-0.490368 -0.140141 0.000000
-0.294827 -0.416146 0.000000
-0.493057 -0.130363 0.000000
-0.286495 -0.421925 0.000000
-0.495552 -0.120532 0.000000
-0.278049 -0.427538 0.000000
-0.497851 -0.110654 0.000000
-0.269494 -0.432982 0.000000
-0.499953 -0.100732 0.000000
-0.260832 -0.438254 0.000000
-0.501857 -0.090771 0.000000
-0.252067 -0.443353 0.000000
-0.503563 -0.080774 0.000000
-0.243202 -0.448277 0.000000
-0.505069 -0.070746 0.000000
-0.234242 -0.453024 0.000000
-0.506376 -0.060691 0.000000
-0.225188 -0.457592 0.000000
-0.507482 -0.050612 0.000000
-0.216046 -0.461979 0.000000
-0.508388 -0.040514 0.000000
-0.206818 -0.466183 0.000000
-0.509093 -0.030400 0.000000
-0.197508 -0.470203 0.000000
-0.509597 -0.020274 0.000000
-0.188120 -0.474037 0.000000
-0.509899 -0.010139 0.000000
-0.178658 -0.477683 0.000000
-0.510000 0.000000 0.000000
-0.169126 -0.481141 0.000000
-0.509899 0.010139 0.000000
-0.509597 0.020274 0.000000
-0.159526 -0.484408 0.000000
-0.509093 0.030400 0.000000
-0.149864 -0.487484 0.000000
-0.508388 0.040514 0.000000
-0.140141 -0.490368 0.000000
-0.507482 0.050612 0.000000
-0.130363 -0.493057 0.000000
-0.506376 0.060691 0.000000
-0.120532 -0.495552 0.000000
-0.505069 0.070746 0.000000
-0.110654 -0.497851 0.000000
-0.503563 0.080774 0.000000
-0.100732 -0.499953 0.000000
-0.501857 0.090771 0.000000
-0.090771 -0.501857 0.000000
-0.499953 0.100732 0.000000
-0.080774 -0.503563 0.000000
-0.497851 0.110654 0.000000
-0.070746 -0.505069 0.000000
-0.495552 0.120532 0.000000
-0.060691 -0.506376 0.000000
-0.493057 0.130363 0.000000
-0.050612 -0.507482 0.000000
-0.490368 0.140141 0.000000
-0.040514 -0.508388 0.000000
-0.487484 0.149864 0.000000
-0.484408 0.159526 0.000000
-0.030400 -0.509093 0.000000
-0.020274 -0.509597 0.000000
-0.481141 0.169126 0.000000
-0.010139 -0.509899 0.000000
-0.477683 0.178658 0.000000
0.000000 -0.510000 0.000000
-0.474037 0.188120 0.000000
0.010139 -0.509899 0.000000
-0.470203 0.197508 0.000000
0.020274 -0.509597 0.000000
-0.466183 0.206818 0.000000
0.030400 -0.509093 0.000000
-0.461979 0.216046 0.000000
0.040514 -0.508388 0.000000
-0.457592 0.225188 0.000000
0.050612 -0.507482 0.000000
-0.453024 0.234242 0.000000
0.060691 -0.506376 0.000000
-0.448277 0.243202 0.000000
0.070746 -0.505069 0.000000
-0.443353 0.252067 0.000000
0.080774 -0.503563 0.000000
-0.438254 0.260832 0.000000
0.090771 -0.501857 0.000000
-0.432982 0.269494 0.000000
0.100732 -0.499953 0.000000
-0.427538 0.278049 0.000000
0.110654 -0.497851 0.000000
-0.421925 0.286495 0.000000
0.120532 -0.495552 0.000000
-0.416146 0.294827 0.000000
0.130363 -0.493057 0.000000
-0.410201 0.303043 0.000000
0.140141 -0.490368 0.000000
-0.404095 0.311138 0.000000
0.149864 -0.487484 0.000000
0.159526 -0.484408 0.000000
-0.397829 0.319111 0.000000
0.169126 -0.481141 0.000000
-0.391406 0.326958 0.000000
0.178658 -0.477683 0.000000
-0.384828 0.334675 0.000000
0.188120 -0.474037 0.000000
-0.378098 0.342260 0.000000
0.197508 -0.470203 0.000000
-0.371218 0.349710 0.000000
0.206818 -0.466183 0.000000
-0.364192 0.357021 0.000000
0.216046 -0.461979 0.000000
-0.357021 0.364192 0.000000
0.225188 -0.457592 0.000000
-0.349710 0.371218 0.000000
0.234242 -0.453024 0.000000
-0.342260 0.378098 0.000000
0.243202 -0.448277 0.000000
-0.334675 0.384828 0.000000
0.252067 -0.443353 0.000000
-0.326958 0.391406 0.000000
0.260832 -0.438254 0.000000
-0.319111 0.397829 0.000000
0.269494 -0.432982 0.000000
-0.311138 0.404095 0.000000
0.278049 -0.427538 0.000000
-0.303043 0.410201 0.000000
0.286495 -0.421925 0.000000
-0.294827 0.416146 0.000000
0.294827 -0.416146 0.000000
-0.286495 0.421925 0.000000
0.303043 -0.410201 0.000000
-0.278049 0.427538 0.000000
0.311138 -0.404095 0.000000
-0.269494 0.432982 0.000000
0.319111 -0.397829 0.000000
-0.260832 0.438254 0.000000
0.326958 -0.391406 0.000000
-0.252067 0.443353 0.000000
0.334675 -0.384828 0.000000
-0.243202 0.448277 0.000000
0.342260 -0.378098 0.000000
-0.234242 0.453024 0.000000
0.349710 -0.371218 0.000000
-0.225188 0.457592 0.000000
0.357021 -0.364192 0.000000
-0.216046 0.461979 0.000000
0.364192 -0.357021 0.000000
-0.206818 0.466183 0.000000
0.371218 -0.349710 0.000000
-0.197508 0.470203 0.000000
0.378098 -0.342260 0.000000
-0.188120 0.474037 0.000000
0.384828 -0.334675 0.000000
-0.178658 0.477683 0.000000
0.391406 -0.326958 0.000000
-0.169126 0.481141 0.000000
0.397829 -0.319111 0.000000
-0.159526 0.484408 0.000000
0.404095 -0.311138 0.000000
-0.149864 0.487484 0.000000
0.410201 -0.303043 0.000000
-0.140141 0.490368 0.000000
0.416146 -0.294827 0.000000
-0.130363 0.493057 0.000000
0.421925 -0.286495 0.000000
-0.120532 0.495552 0.000000
0.427538 -0.278049 0.000000
-0.110654 0.497851 0.000000
0.432982 -0.269494 0.000000
-0.100732 0.499953 0.000000
0.438254 -0.260832 0.000000
-0.090771 0.501857 0.000000
0.443353 -0.252067 0.000000
-0.080774 0.503563 0.000000
0.448277 -0.243202 0.000000
-0.070746 0.505069 0.000000
0.453024 -0.234242 0.000000
-0.060691 0.506376 0.000000
0.457592 -0.225188 0.000000
-0.050612 0.507482 0.000000
0.461979 -0.216046 0.000000
-0.040514 0.508388 0.000000
0.466183 -0.206818 0.000000
-0.030400 0.509093 0.000000
0.470203 -0.197508 0.000000
-0.020274 0.509597 0.000000
0.474037 -0.188120 0.000000
-0.010139 0.509899 0.000000
0.477683 -0.178658 0.000000
0.000000 0.510000 0.000000
0.481141 -0.169126 0.000000
0.010139 0.509899 0.000000
0.484408 -0.159526 0.000000
0.020274 0.509597 0.000000
0.487484 -0.149864 0.000000
0.030400 0.509093 0.000000
0.490368 -0.140141 0.000000
0.040514 0.508388 0.000000
0.493057 -0.130363 0.000000
0.050612 0.507482 0.000000
0.495552 -0.120532 0.000000
0.060691 0.506376 0.000000
0.497851 -0.110654 0.000000
0.070746 0.505069 0.000000
0.499953 -0.100732 0.000000
0.080774 0.503563 0.000000
0.501857 -0.090771 0.000000
0.090771 0.501857 0.000000
0.503563 -0.080774 0.000000
0.100732 0.499953 0.000000
0.505069 -0.070746 0.000000
0.110654 0.497851 0.000000
0.506376 -0.060691 0.000000
0.120532 0.495552 0.000000
0.507482 -0.050612 0.000000
0.130363 0.493057 0.000000
0.508388 -0.040514 0.000000
0.140141 0.490368 0.000000
0.509093 -0.030400 0.000000
0.149864 0.487484 0.000000
0.509597 -0.020274 0.000000
0.159526 0.484408 0.000000
0.509899 -0.010139 0.000000
0.169126 0.481141 0.000000
0.510000 0.000000 0.000000
0.178658 0.477683 0.000000
0.509899 0.010139 0.000000
0.188120 0.474037 0.000000
0.509597 0.020274 0.000000
0.197508 0.470203 0.000000
0.509093 0.030400 0.000000
0.206818 0.466183 0.000000
0.508388 0.040514 0.000000
0.216046 0.461979 0.000000
0.507482 0.050612 0.000000
0.225188 0.457592 0.000000
0.506376 0.060691 0.000000
0.234242 0.453024 0.000000
0.505069 0.070746 0.000000
0.243202 0.448277 0.000000
0.503563 0.080774 0.000000
0.252067 0.443353 0.000000
0.501857 0.090771 0.000000
0.260832 0.438254 0.000000
0.499953 0.100732 0.000000
0.269494 0.432982 0.000000
0.497851 0.110654 0.000000
0.278049 0.427538 0.000000
0.495552 0.120532 0.000000
0.286495 0.421925 0.000000
0.493057 0.130363 0.000000
0.294827 0.416146 0.000000
0.490368 0.140141 0.000000
0.303043 0.410201 0.000000
0.487484 0.149864 0.000000
0.311138 0.404095 0.000000
0.484408 0.159526 0.000000
0.319111 0.397829 0.000000
0.481141 0.169126 0.000000
0.326958 0.391406 0.000000
0.477683 0.178658 0.000000
0.334675 0.384828 0.000000
0.474037 0.188120 0.000000
0.342260 0.378098 0.000000
0.470203 0.197508 0.000000
0.349710 0.371218 0.000000
0.466183 0.206818 0.000000
0.357021 0.364192 0.000000
0.461979 0.216046 0.000000
0.364192 0.357021 0.000000
0.457592 0.225188 0.000000
0.371218 0.349710 0.000000
0.453024 0.234242 0.000000
0.378098 0.342260 0.000000
0.448277 0.243202 0.000000
0.384828 0.334675 0.000000
0.443353 0.252067 0.000000
0.391406 0.326958 0.000000
0.438254 0.260832 0.000000
0.397829 0.319111 0.000000
0.432982 0.269494 0.000000
0.404095 0.311138 0.000000
0.427538 0.278049 0.000000
0.410201 0.303043 0.000000
0.421925 0.286495 0.000000
0.416146 0.294827 0.000000
-0.415025 -0.278844 0.000000
-0.403306 -0.295541 0.000000
-0.420627 -0.270320 0.000000
-0.397194 -0.303706 0.000000
-0.426054 -0.261684 0.000000
-0.390916 -0.311745 0.000000
-0.431303 -0.252938 0.000000
-0.384475 -0.319654 0.000000
-0.436373 -0.244088 0.000000
-0.377875 -0.327430 0.000000
-0.441261 -0.235136 0.000000
-0.371117 -0.335070 0.000000
-0.445965 -0.226086 0.000000
-0.364205 -0.342571 0.000000
-0.450484 -0.216942 0.000000
-0.357141 -0.349929 0.000000
-0.454816 -0.207707 0.000000
-0.349929 -0.357141 0.000000
-0.458958 -0.198386 0.000000
-0.342571 -0.364205 0.000000
-0.462910 -0.188983 0.000000
-0.335070 -0.371117 0.000000
-0.466668 -0.179501 0.000000
-0.327430 -0.377875 0.000000
-0.470233 -0.169944 0.000000
-0.319654 -0.384475 0.000000
-0.473602 -0.160317 0.000000
-0.311745 -0.390916 0.000000
-0.476773 -0.150623 0.000000
-0.303706 -0.397194 0.000000
-0.479747 -0.140866 0.000000
-0.295541 -0.403306 0.000000
-0.482520 -0.131050 0.000000
-0.287252 -0.409251 0.000000
-0.485094 -0.121178 0.000000
[...]
POINT_DATA 994
SCALARS u1 float
LOOKUP_TABLE default
-8e-05
-9e-05
-9e-05
-7e-05
-0.0001
-6e-05
-0.0001
-6e-05
-0.0001
-5e-05
-0.0001
-4e-05
-0.0001
-4e-05
-0.0002
-3e-05
-0.0002
-3e-05
-0.0002
-3e-05
-0.0002
-3e-05
-0.0002
-3e-05
-0.0003
-3e-05
-0.0003
-3e-05
-0.0003
-4e-05
-0.0003
-4e-05
-0.0003
-4e-05
-0.0004
-5e-05
-0.0004
-5e-05
-0.0004
-5e-05
-0.0005
-6e-05
-0.0005
-6e-05
-0.0005
-7e-05
-0.0005
-7e-05
-0.0005
-8e-05
-0.0006
-8e-05
-0.0006
-9e-05
-0.0006
-9e-05
-0.0006
-0.0001
-0.0006
-0.0001
-0.0006
-0.0001
-0.0006
-0.0001
-0.0006
-0.0006
-0.0001
-0.0006
-0.0001
-0.0006
-0.0001
-0.0006
-0.0001
-0.0006
-0.0001
-0.0006
-0.0002
-0.0006
-0.0002
-0.0005
-0.0002
-0.0005
-0.0002
-0.0005
-0.0002
-0.0005
-0.0002
-0.0005
-0.0002
-0.0004
-0.0002
-0.0004
-0.0004
-0.0002
-0.0002
-0.0004
-0.0002
-0.0004
-0.0002
-0.0003
-0.0002
-0.0003
-0.0002
-0.0003
-0.0001
-0.0003
-0.0001
-0.0003
-0.0001
-0.0003
-0.0001
-0.0003
-0.0001
-0.0002
-0.0002
-0.0002
-0.0002
-0.0002
-0.0002
-0.0002
-0.0002
-0.0002
-0.0002
-0.0002
-0.0002
-0.0002
-0.0002
-0.0002
-0.0002
-0.0002
-0.0002
-0.0002
-0.0002
-0.0002
-0.0002
-0.0002
-0.0002
-0.0002
-0.0002
-0.0002
-0.0002
-0.0002
-0.0002
-0.0003
-0.0002
-0.0003
-0.0002
-0.0003
-0.0002
-0.0003
-0.0002
-0.0003
-0.0002
-0.0003
-0.0002
-0.0003
-0.0002
-0.0003
-0.0002
-0.0003
-0.0002
-0.0003
-0.0002
-0.0003
-0.0002
-0.0003
-0.0003
-0.0003
-0.0003
-0.0003
-0.0003
-0.0003
-0.0003
-0.0003
-0.0003
-0.0003
-0.0003
-0.0003
-0.0003
-0.0004
-0.0003
-0.0003
-0.0003
-0.0003
-0.0003
-0.0003
-0.0003
-0.0003
-0.0003
-0.0003
-0.0004
-0.0003
-0.0004
-0.0003
-0.0004
-0.0003
-0.0004
-0.0003
-0.0004
-0.0003
-0.0004
-0.0003
-0.0004
-0.0003
-0.0004
-0.0003
-0.0004
-0.0003
-0.0004
-0.0003
-0.0004
-0.0002
-0.0004
-0.0002
-0.0004
-0.0002
-0.0004
-0.0002
-0.0004
-0.0002
-0.0004
-0.0002
-0.0004
-0.0001
-0.0004
-0.0001
-0.0004
-0.0001
-0.0004
-7e-05
-0.0004
-5e-05
-0.0004
-3e-05
-0.0004
-1e-05
-0.0004
7e-06
-0.0004
3e-05
-0.0004
4e-05
-0.0004
6e-05
-0.0004
7e-05
-0.0004
8e-05
-0.0004
9e-05
-0.0004
0.0001
-0.0004
0.0001
-0.0004
0.0001
-0.0004
9e-05
-0.0004
9e-05
-0.0004
8e-05
-0.0005
6e-05
-0.0005
5e-05
-0.0005
3e-05
-0.0005
8e-06
-0.0005
-1e-05
-0.0005
-4e-05
-0.0005
-6e-05
-0.0005
-9e-05
-0.0005
-0.0001
-0.0005
-0.0001
-0.0005
-0.0002
-0.0005
-0.0002
-0.0005
-0.0002
-0.0005
-0.0002
-0.0005
-0.0003
-0.0005
-0.0003
-0.0005
-0.0003
-0.0005
-0.0003
-0.0005
-0.0004
-0.0005
-0.0004
-0.0005
-0.0004
-0.0005
-0.0004
-0.0005
-0.0004
-0.0005
-0.0004
-0.0005
-0.0004
-0.0005
-0.0004
-0.0005
-0.0005
-0.0005
-0.0001
-8e-05
-0.0001
-7e-05
-0.0001
-6e-05
-0.0001
-6e-05
-0.0001
-5e-05
-0.0002
-4e-05
-0.0002
-4e-05
-0.0002
-3e-05
-0.0002
-3e-05
-0.0002
-3e-05
-0.0003
-3e-05
-0.0003
-3e-05
-0.0003
-3e-05
-0.0003
-3e-05
-0.0003
-4e-05
-0.0004
-4e-05
-0.0004
-4e-05
-0.0004
-4e-05
-0.0004
-5e-05
-0.0005
-5e-05
-0.0005
-5e-05
-0.0005
-6e-05
-0.0005
-6e-05
-0.0006
-7e-05
-0.0006
-7e-05
-0.0006
-8e-05
-0.0006
-8e-05
-0.0006
-9e-05
-0.0006
-9e-05
-0.0006
-0.0001
-0.0006
-0.0001
-0.0006
-0.0001
-0.0006
-0.0001
-0.0006
-0.0001
-0.0006
-0.0001
-0.0006
-0.0001
-0.0006
-0.0001
-0.0005
-0.0001
-0.0005
-0.0001
-0.0005
-0.0001
-0.0005
-0.0001
-0.0005
-0.0002
-0.0005
-0.0002
-0.0004
-0.0002
-0.0004
-0.0002
-0.0004
-0.0002
-0.0004
-0.0002
-0.0004
-0.0002
-0.0003
-0.0002
-0.0003
-0.0002
-0.0003
-0.0002
-0.0003
-0.0002
-0.0003
-0.0002
-0.0003
-0.0002
-0.0003
-0.0002
-0.0002
-0.0002
-0.0002
-0.0002
-0.0002
-0.0002
-0.0002
-0.0002
-0.0002
-0.0002
-0.0002
-0.0002
-0.0002
-0.0002
-0.0002
-0.0002
-0.0002
-0.0002
-0.0002
-0.0002
-0.0002
-0.0002
-0.0002
-0.0003
-0.0002
-0.0003
-0.0002
-0.0003
-0.0002
-0.0003
-0.0002
-0.0003
-0.0002
-0.0003
-0.0002
-0.0003
-0.0002
-0.0003
-0.0002
-0.0003
-0.0002
-0.0003
-0.0002
-0.0003
-0.0002
-0.0003
-0.0002
-0.0003
-0.0002
-0.0003
-0.0002
-0.0003
-0.0003
-0.0003
-0.0003
-0.0003
-0.0003
-0.0003
-0.0003
-0.0004
-0.0003
-0.0004
-0.0003
-0.0004
-0.0003
-0.0003
-0.0003
-0.0003
-0.0003
-0.0003
-0.0003
-0.0003
-0.0003
-0.0003
-0.0003
-0.0003
-0.0003
-0.0003
-0.0003
-0.0003
-0.0004
-0.0003
-0.0004
-0.0003
-0.0004
-0.0003
-0.0004
-0.0003
-0.0004
-0.0003
-0.0004
-0.0003
-0.0004
-0.0002
-0.0004
-0.0002
-0.0004
-0.0002
-0.0004
-0.0002
-0.0004
-0.0002
-0.0004
-0.0002
-0.0004
-0.0001
-0.0004
-0.0001
-0.0004
-0.0001
-0.0004
-8e-05
-0.0004
-5e-05
-0.0004
-3e-05
-0.0004
-1e-05
-0.0004
7e-06
-0.0004
2e-05
-0.0004
4e-05
-0.0004
6e-05
-0.0004
7e-05
-0.0004
8e-05
-0.0004
9e-05
-0.0004
0.0001
-0.0004
0.0001
-0.0004
0.0001
-0.0005
9e-05
-0.0005
9e-05
-0.0005
8e-05
-0.0005
6e-05
-0.0005
5e-05
-0.0005
3e-05
-0.0005
7e-06
-0.0005
-1e-05
-0.0005
-4e-05
-0.0005
-6e-05
-0.0005
-9e-05
-0.0005
-0.0001
-0.0005
-0.0001
-0.0005
-0.0002
-0.0005
-0.0002
-0.0005
-0.0002
-0.0005
-0.0002
-0.0005
-0.0003
-0.0005
-0.0003
-0.0005
-0.0003
-0.0005
-0.0003
-0.0005
-0.0004
-0.0005
-0.0004
-0.0005
-0.0004
-0.0005
-0.0004
-0.0005
-0.0004
-0.0005
-0.0004
-0.0005
-0.0004
-0.0004
-0.0005
-0.0005
-9e-05
-8e-05
-0.0001
-7e-05
-0.0001
-6e-05
-0.0001
-6e-05
-0.0001
-5e-05
-0.0001
-4e-05
-0.0002
-0.0002
-4e-05
-0.0002
-0.0002
-3e-05
-0.0002
-0.0002
-3e-05
-0.0002
-0.0002
-3e-05
-0.0002
-0.0002
-3e-05
-0.0003
-0.0003
-3e-05
-0.0003
-0.0003
-3e-05
-0.0003
-0.0003
-3e-05
-0.0003
-4e-05
-0.0004
-4e-05
-0.0004
-4e-05
-0.0004
-5e-05
-0.0004
-5e-05
-0.0005
-5e-05
-0.0005
-6e-05
-0.0005
-6e-05
-0.0005
-6e-05
-0.0005
-7e-05
-7e-05
-0.0006
-8e-05
-8e-05
-0.0006
-8e-05
-8e-05
-0.0006
-9e-05
-9e-05
-9e-05
-0.0001
-0.0006
-0.0001
-0.0001
-0.0006
-0.0001
-0.0001
-0.0006
-0.0001
-0.0001
-0.0006
-0.0001
-0.0006
-0.0001
-0.0006
-0.0001
-0.0006
-0.0001
-0.0006
-0.0001
-0.0006
-0.0001
-0.0006
-0.0001
-0.0005
-0.0002
-0.0005
-0.0002
-0.0005
-0.0002
-0.0005
-0.0002
-0.0005
-0.0002
-0.0004
-0.0002
-0.0004
-0.0004
-0.0004
-0.0002
-0.0004
-0.0004
-0.0002
-0.0003
-0.0004
-0.0002
-0.0003
-0.0003
-0.0002
-0.0003
-0.0003
-0.0002
-0.0003
-0.0003
-0.0002
-0.0003
-0.0003
-0.0002
-0.0003
-0.0003
-0.0002
-0.0003
-0.0002
-0.0003
-0.0002
-0.0002
-0.0002
-0.0002
-0.0002
-0.0002
-0.0002
-0.0002
-0.0002
-0.0002
-0.0002
-0.0002
-0.0002
-0.0002
-0.0002
-0.0002
-0.0002
-0.0002
-0.0002
-0.0002
-0.0002
-0.0002
-0.0002
-0.0002
-0.0002
-0.0002
-0.0002
-0.0002
-0.0002
-0.0002
-0.0002
-0.0002
-0.0002
-0.0002
-0.0003
-0.0003
-0.0002
-0.0003
-0.0003
-0.0002
-0.0003
-0.0002
-0.0003
-0.0002
-0.0003
-0.0002
-0.0003
-0.0002
-0.0003
-0.0002
-0.0003
-0.0002
-0.0003
-0.0002
-0.0003
-0.0002
-0.0003
-0.0002
-0.0003
-0.0002
-0.0003
-0.0003
-0.0003
-0.0003
-0.0003
-0.0003
-0.0003
-0.0003
-0.0003
-0.0003
-0.0003
-0.0003
-0.0003
-0.0003
-0.0003
-0.0003
-0.0004
-0.0003
-0.0003
-0.0004
-0.0003
-0.0003
-0.0003
-0.0003
-0.0003
-0.0003
-0.0003
-0.0003
-0.0003
-0.0003
-0.0003
-0.0003
-0.0003
-0.0004
-0.0003
-0.0004
-0.0003
-0.0004
-0.0003
-0.0004
-0.0003
-0.0004
-0.0003
-0.0004
-0.0003
-0.0004
-0.0003
-0.0004
-0.0003
-0.0003
-0.0004
-0.0003
-0.0003
-0.0004
-0.0002
-0.0002
-0.0004
-0.0002
-0.0002
-0.0004
-0.0002
-0.0002
-0.0004
-0.0002
-0.0002
-0.0004
-0.0002
-0.0002
-0.0004
-0.0002
-0.0001
-0.0004
-0.0001
-0.0004
-0.0001
-0.0004
-9e-05
-0.0004
-6e-05
-0.0004
-4e-05
-0.0004
-2e-05
-0.0004
-7e-06
-0.0004
2e-05
-0.0004
3e-05
-0.0004
5e-05
-0.0004
7e-05
-0.0004
8e-05
-0.0004
8e-05
-0.0004
9e-05
-0.0004
0.0001
-0.0004
-0.0004
0.0001
-0.0004
-0.0004
0.0001
-0.0004
-0.0004
9e-05
-0.0004
-0.0005
8e-05
-0.0005
-0.0005
7e-05
-0.0005
-0.0005
5e-05
-0.0005
-0.0005
4e-05
-0.0005
2e-05
-0.0005
-3e-06
-0.0005
-3e-05
-0.0005
-5e-05
-0.0005
-7e-05
-0.0005
-0.0001
-0.0005
-0.0001
-0.0005
-0.0002
-0.0005
-0.0002
-0.0005
-0.0002
-0.0005
-0.0002
-0.0002
-0.0005
-0.0002
-0.0003
-0.0005
-0.0003
-0.0003
-0.0005
-0.0003
-0.0003
-0.0005
-0.0003
-0.0003
-0.0005
-0.0003
-0.0003
-0.0005
-0.0004
-0.0004
-0.0005
-0.0004
-0.0005
-0.0004
-0.0005
-0.0004
-0.0005
-0.0004
-0.0005
-0.0004
-0.0005
-0.0004
-0.0005
-0.0004
-0.0005
-0.0005
SCALARS u2 float
LOOKUP_TABLE default
-0.0002
-0.0002
-0.0002
-0.0002
-0.0002
-0.0002
-0.0002
-0.0002
-0.0003
-0.0002
-0.0003
-0.0002
-0.0003
-0.0002
-0.0003
-0.0002
-0.0003
-0.0002
-0.0003
-0.0002
-0.0003
-0.0002
-0.0003
-0.0002
-0.0003
-0.0002
-0.0003
-0.0002
-0.0003
-0.0002
-0.0003
-0.0002
-0.0004
-0.0002
-0.0004
-0.0002
-0.0004
-0.0002
-0.0004
-0.0002
-0.0004
-0.0002
-0.0004
-0.0002
-0.0004
-0.0002
-0.0004
-0.0002
-0.0004
-0.0003
-0.0004
-0.0003
-0.0004
-0.0003
-0.0004
-0.0003
-0.0004
-0.0003
-0.0004
-0.0003
-0.0004
-0.0003
-0.0004
-0.0004
-0.0004
-0.0004
-0.0004
-0.0004
-0.0004
-0.0004
-0.0004
-0.0004
-0.0004
-0.0004
-0.0005
-0.0004
-0.0005
-0.0004
-0.0005
-0.0004
-0.0005
-0.0004
-0.0005
-0.0004
-0.0006
-0.0004
-0.0006
-0.0004
-0.0006
-0.0004
-0.0006
-0.0004
-0.0004
-0.0006
-0.0006
-0.0004
-0.0006
-0.0004
-0.0006
-0.0004
-0.0006
-0.0004
-0.0006
-0.0004
-0.0006
-0.0004
-0.0006
-0.0005
-0.0006
-0.0005
-0.0005
-0.0005
-0.0005
-0.0005
-0.0005
-0.0005
-0.0005
-0.0005
-0.0005
-0.0005
-0.0004
-0.0005
-0.0004
-0.0005
-0.0004
-0.0005
-0.0004
-0.0005
-0.0003
-0.0003
-0.0005
-0.0003
-0.0005
-0.0003
-0.0005
-0.0002
-0.0005
-0.0002
-0.0005
-0.0002
-0.0005
-0.0002
-0.0005
-0.0002
-0.0005
-0.0001
-0.0005
-0.0001
-0.0005
-0.0001
-0.0005
-0.0001
-0.0005
-0.0001
-0.0005
-9e-05
-0.0005
-8e-05
-0.0005
-7e-05
-0.0004
-6e-05
-0.0004
-5e-05
-0.0004
-4e-05
-0.0004
-3e-05
-0.0004
-3e-05
-0.0004
-2e-05
-0.0004
-2e-05
-0.0004
-2e-05
-0.0003
-2e-05
-0.0003
-2e-05
-0.0003
-2e-05
-0.0003
-2e-05
-0.0003
-2e-05
-0.0002
-2e-05
-0.0002
-3e-05
-0.0002
-3e-05
-0.0002
-3e-05
-0.0001
-4e-05
-0.0001
-4e-05
-8e-05
-5e-05
-6e-05
-5e-05
-3e-05
-6e-05
-1e-05
-6e-05
1e-05
-7e-05
3e-05
-7e-05
5e-05
-8e-05
6e-05
-9e-05
8e-05
-9e-05
9e-05
-0.0001
9e-05
-0.0001
0.0001
-0.0001
0.0001
-0.0001
9e-05
-0.0001
9e-05
-0.0001
8e-05
-0.0001
7e-05
-0.0001
5e-05
-0.0001
4e-05
-0.0002
2e-05
-0.0002
5e-06
-0.0002
-1e-05
-0.0002
-3e-05
-0.0002
-6e-05
-0.0002
-8e-05
-0.0002
-0.0001
-0.0002
-0.0001
-0.0002
-0.0001
-0.0002
-0.0002
-0.0001
-0.0002
-0.0001
-0.0002
-0.0001
-0.0002
-0.0001
-0.0002
-0.0001
-0.0002
-0.0001
-0.0003
-0.0001
-0.0003
-0.0001
-0.0003
-0.0001
-0.0003
-0.0001
-0.0003
-0.0002
-0.0003
-0.0002
-0.0003
-0.0002
-0.0003
-0.0002
-0.0003
-0.0002
-0.0003
-0.0002
-0.0003
-0.0002
-0.0003
-0.0002
-0.0003
-0.0002
-0.0004
-0.0002
-0.0004
-0.0002
-0.0004
-0.0002
-0.0004
-0.0002
-0.0004
-0.0003
-0.0003
-0.0003
-0.0003
-0.0003
-0.0003
-0.0003
-0.0003
-0.0003
-0.0003
-0.0003
-0.0003
-0.0003
-0.0003
-0.0003
-0.0003
-0.0002
-0.0002
-0.0002
-0.0002
-0.0002
-0.0002
-0.0002
-0.0002
-0.0003
-0.0002
-0.0003
-0.0002
-0.0003
-0.0002
-0.0003
-0.0002
-0.0003
-0.0002
-0.0003
-0.0002
-0.0003
-0.0002
-0.0003
-0.0002
-0.0003
-0.0002
-0.0003
-0.0002
-0.0003
-0.0002
-0.0003
-0.0002
-0.0003
-0.0002
-0.0003
-0.0002
-0.0004
-0.0002
-0.0004
-0.0002
-0.0004
-0.0002
-0.0004
-0.0002
-0.0004
-0.0003
-0.0004
-0.0003
-0.0004
-0.0003
-0.0004
-0.0003
-0.0004
-0.0003
-0.0004
-0.0003
-0.0004
-0.0003
-0.0004
-0.0004
-0.0004
-0.0004
-0.0004
-0.0004
-0.0004
-0.0004
-0.0004
-0.0004
-0.0004
-0.0005
-0.0004
-0.0005
-0.0004
-0.0005
-0.0004
-0.0005
-0.0004
-0.0005
-0.0004
-0.0006
-0.0004
-0.0006
-0.0004
-0.0006
-0.0004
-0.0006
-0.0004
-0.0006
-0.0004
-0.0006
-0.0004
-0.0006
-0.0004
-0.0006
-0.0004
-0.0006
-0.0004
-0.0006
-0.0005
-0.0006
-0.0005
-0.0006
-0.0005
-0.0006
-0.0005
-0.0005
-0.0005
-0.0005
-0.0005
-0.0005
-0.0005
-0.0005
-0.0005
-0.0005
-0.0005
-0.0004
-0.0005
-0.0004
-0.0005
-0.0004
-0.0005
-0.0004
-0.0005
-0.0003
-0.0005
-0.0003
-0.0005
-0.0003
-0.0005
-0.0003
-0.0005
-0.0002
-0.0005
-0.0002
-0.0005
-0.0002
-0.0005
-0.0002
-0.0005
-0.0002
-0.0005
-0.0001
-0.0005
-0.0001
-0.0005
-0.0001
-0.0005
-0.0001
-0.0005
-0.0001
-0.0005
-8e-05
-0.0004
-8e-05
-0.0004
-7e-05
-0.0004
-6e-05
-0.0004
-5e-05
-0.0004
-4e-05
-0.0004
-3e-05
-0.0004
-3e-05
-0.0004
-2e-05
-0.0003
-2e-05
-0.0003
-2e-05
-0.0003
-2e-05
-0.0003
-2e-05
-0.0003
-2e-05
-0.0002
-2e-05
-0.0002
-2e-05
-0.0002
-2e-05
-0.0002
-3e-05
-0.0001
-3e-05
-0.0001
-3e-05
-8e-05
-4e-05
-6e-05
-4e-05
-3e-05
-4e-05
-1e-05
-5e-05
1e-05
-5e-05
3e-05
-6e-05
5e-05
-6e-05
6e-05
-7e-05
8e-05
-7e-05
9e-05
-8e-05
9e-05
-9e-05
0.0001
-9e-05
0.0001
-0.0001
9e-05
-0.0001
9e-05
-0.0001
8e-05
-0.0001
7e-05
-0.0001
5e-05
-0.0001
4e-05
-0.0001
2e-05
-0.0001
4e-06
-0.0001
-2e-05
-0.0001
-4e-05
-0.0001
-6e-05
-0.0001
-8e-05
-0.0001
-0.0001
-0.0001
-0.0001
-0.0001
-0.0001
-0.0002
-0.0002
-0.0002
-0.0002
-0.0002
-0.0002
-0.0002
-0.0002
-0.0002
-0.0002
-0.0002
-0.0003
-0.0002
-0.0003
-0.0002
-0.0003
-0.0002
-0.0003
-0.0002
-0.0003
-0.0002
-0.0003
-0.0002
-0.0003
-0.0002
-0.0003
-0.0002
-0.0003
-0.0002
-0.0003
-0.0002
-0.0003
-0.0002
-0.0003
-0.0002
-0.0003
-0.0002
-0.0003
-0.0002
-0.0004
-0.0002
-0.0004
-0.0002
-0.0004
-0.0003
-0.0004
-0.0003
-0.0004
-0.0003
-0.0003
-0.0003
-0.0003
-0.0003
-0.0003
-0.0003
-0.0003
-0.0003
-0.0003
-0.0003
-0.0003
-0.0003
-0.0003
-0.0002
-0.0002
-0.0002
-0.0002
-0.0002
-0.0002
-0.0002
-0.0002
-0.0003
-0.0002
-0.0003
-0.0002
-0.0003
-0.0003
-0.0002
-0.0003
-0.0003
-0.0002
-0.0003
-0.0003
-0.0002
-0.0003
-0.0003
-0.0002
-0.0003
-0.0003
-0.0002
-0.0003
-0.0003
-0.0002
-0.0003
-0.0003
-0.0002
-0.0003
-0.0003
-0.0002
-0.0003
-0.0002
-0.0003
-0.0002
-0.0003
-0.0002
-0.0004
-0.0002
-0.0004
-0.0002
-0.0004
-0.0002
-0.0004
-0.0002
-0.0004
-0.0002
-0.0004
-0.0002
-0.0004
-0.0003
-0.0003
-0.0004
-0.0003
-0.0003
-0.0004
-0.0003
-0.0003
-0.0004
-0.0003
-0.0003
-0.0003
-0.0003
-0.0004
-0.0003
-0.0003
-0.0004
-0.0004
-0.0004
-0.0004
-0.0004
-0.0004
-0.0004
-0.0004
-0.0004
-0.0004
-0.0004
-0.0004
-0.0004
-0.0005
-0.0004
-0.0005
-0.0004
-0.0005
-0.0004
-0.0005
-0.0004
-0.0005
-0.0004
-0.0006
-0.0004
-0.0006
-0.0004
-0.0006
-0.0004
-0.0006
-0.0004
-0.0006
-0.0004
-0.0004
-0.0004
-0.0006
-0.0004
-0.0004
-0.0006
-0.0004
-0.0004
-0.0006
-0.0004
-0.0004
-0.0006
-0.0004
-0.0004
-0.0006
-0.0005
-0.0005
-0.0006
-0.0005
-0.0005
-0.0006
-0.0005
-0.0005
-0.0006
-0.0005
-0.0005
-0.0005
-0.0005
-0.0005
-0.0005
-0.0005
-0.0005
-0.0005
-0.0004
-0.0005
-0.0004
-0.0005
-0.0004
-0.0005
-0.0004
-0.0005
-0.0003
-0.0005
-0.0003
-0.0003
-0.0005
-0.0003
-0.0003
-0.0005
-0.0003
-0.0003
-0.0005
-0.0002
-0.0002
-0.0005
-0.0002
-0.0002
-0.0005
-0.0002
-0.0002
-0.0005
-0.0002
-0.0002
-0.0005
-0.0002
-0.0002
-0.0005
-0.0001
-0.0005
-0.0001
-0.0005
-0.0001
-0.0005
-0.0001
-0.0005
-0.0001
-0.0005
-9e-05
-0.0005
-8e-05
-0.0004
-7e-05
-0.0004
-6e-05
-0.0004
-5e-05
-0.0004
-4e-05
-0.0004
-3e-05
-0.0004
-3e-05
-0.0004
-0.0004
-2e-05
-0.0004
-0.0003
-2e-05
-0.0003
-0.0003
-2e-05
-0.0003
-0.0003
-2e-05
-0.0003
-0.0003
-2e-05
-0.0003
-0.0003
-2e-05
-0.0003
-0.0002
-2e-05
-0.0002
-0.0002
-2e-05
-0.0002
-2e-05
-0.0002
-3e-05
-0.0001
-3e-05
-0.0001
-3e-05
-9e-05
-4e-05
-7e-05
-4e-05
-5e-05
-4e-05
-3e-05
-5e-05
-1e-07
-5e-05
2e-05
-6e-05
-6e-05
4e-05
-7e-05
-7e-05
6e-05
-7e-05
-7e-05
7e-05
-8e-05
-8e-05
8e-05
-8e-05
-9e-05
9e-05
-9e-05
-9e-05
0.0001
-0.0001
-0.0001
0.0001
-0.0001
-0.0001
0.0001
-0.0001
9e-05
-0.0001
8e-05
-0.0001
7e-05
-0.0001
6e-05
-0.0001
5e-05
-0.0001
3e-05
-0.0001
1e-05
-0.0001
-9e-06
-0.0001
-3e-05
-0.0001
-5e-05
-0.0002
-7e-05
-0.0002
-9e-05
-0.0002
-0.0001
-0.0002
-0.0001
-0.0002
-0.0001
-0.0002
-0.0002
-0.0002
-0.0002
-0.0001
-0.0002
-0.0002
-0.0001
-0.0002
-0.0002
-0.0001
-0.0002
-0.0002
-0.0001
-0.0002
-0.0002
-0.0002
-0.0003
-0.0003
-0.0002
-0.0003
-0.0002
-0.0003
-0.0002
-0.0003
-0.0002
-0.0003
-0.0002
-0.0003
-0.0002
-0.0003
-0.0002
-0.0003
-0.0002
-0.0003
-0.0002
-0.0003
-0.0002
-0.0003
-0.0002
-0.0003
-0.0002
-0.0002
-0.0003
-0.0002
-0.0002
-0.0003
-0.0002
-0.0002
-0.0004
-0.0002
-0.0002
-0.0004
-0.0002
-0.0002
-0.0004
-0.0002
-0.0003
-0.0004
-0.0003
-0.0003
-0.0004
-0.0003
-0.0003
-0.0003
-0.0003
-0.0003
-0.0003
-0.0003
-0.0003
-0.0003
-0.0003
-0.0003
-0.0003
-0.0003
-0.0003
-0.0003
SCALARS strain_1 float
LOOKUP_TABLE default
-0.000536
-0.000352
0.000334
-0.001378
0.001240
-0.002190
0.002193
-0.002958
0.003205
-0.003673
0.004228
-0.004373
0.005289
-0.005008
0.006398
-0.005625
0.007524
-0.006202
0.008708
-0.006756
0.009930
-0.007236
0.011169
-0.007698
0.012424
-0.008133
0.013743
-0.008548
0.015080
-0.008893
0.016434
-0.009215
0.017851
-0.009515
0.019241
-0.009769
0.020710
-0.009997
0.022191
-0.010199
0.023692
-0.010373
0.025192
-0.010510
0.026730
-0.010620
0.028295
-0.010722
0.029863
-0.010747
0.031470
-0.010796
0.033065
-0.010798
0.034685
-0.010771
0.036299
-0.010728
0.037949
-0.010675
0.039572
-0.010588
0.041224
-0.010504
0.042872
0.044527
-0.010376
0.046157
-0.010228
0.047795
-0.010087
0.049431
-0.009913
0.051048
-0.009730
0.052659
-0.009522
0.054253
-0.009319
0.055845
-0.009101
0.057418
-0.008877
0.058962
-0.008630
0.060483
-0.008405
0.061982
-0.008126
0.063446
-0.007873
0.064900
0.066320
-0.007603
-0.007348
0.067692
-0.007081
0.069039
-0.006789
0.070335
-0.006531
0.071598
-0.006250
0.072842
-0.005978
0.074024
-0.005716
0.075156
-0.005433
0.076254
-0.005148
0.077291
-0.004894
0.078288
-0.004644
0.079257
-0.004380
0.080121
-0.004132
0.080953
-0.003898
0.081740
-0.003643
0.082459
-0.003415
0.083141
-0.003196
0.083741
-0.002981
-0.002782
0.084286
-0.002587
0.084753
-0.002402
0.085182
-0.002212
0.085547
-0.002072
0.085842
-0.001895
0.086076
-0.001754
0.086244
-0.001616
0.086346
-0.001510
0.086401
-0.001376
0.086367
-0.001276
0.086287
-0.001198
0.086145
-0.001130
0.085925
-0.001051
0.085663
-0.001003
0.085320
-0.000954
0.084917
-0.000938
0.084442
-0.000911
0.083939
-0.000896
0.083345
-0.000893
0.082698
-0.000906
0.082010
-0.000944
0.081251
-0.000964
0.080443
-0.001012
0.079589
-0.001084
0.078679
-0.001132
0.077713
-0.001202
0.076716
-0.001287
0.075645
-0.001381
0.074548
-0.001479
0.073406
-0.001597
0.072214
-0.001700
0.071006
-0.001810
0.069735
-0.001931
0.068437
-0.002094
0.067099
-0.002222
0.065732
-0.002376
0.064336
-0.002540
0.062923
-0.002689
0.061488
-0.002852
0.060028
-0.003005
0.058535
-0.003184
0.057035
-0.003350
0.055517
-0.003531
0.053991
-0.003700
0.052450
-0.003885
0.050894
-0.004044
0.049330
-0.004241
0.047780
-0.004422
0.046206
-0.004602
0.044655
-0.004794
0.043072
-0.004951
0.041522
-0.005149
0.039968
-0.005303
0.038415
-0.005480
0.036874
-0.005653
0.035346
-0.005808
0.033831
-0.005977
0.032325
-0.006128
0.030846
-0.006300
0.029375
-0.006443
0.027918
-0.006597
0.026509
-0.006702
0.025104
-0.006847
0.023723
-0.006975
0.022361
-0.007061
0.021030
-0.007168
0.019720
-0.007266
0.018439
-0.007348
0.017204
-0.007409
0.015967
-0.007467
0.014786
-0.007509
0.013614
-0.007545
0.012494
-0.007574
0.011403
-0.007580
0.010332
-0.007568
0.009307
-0.007536
0.008305
-0.007494
0.007342
-0.007449
0.006416
-0.007370
0.005499
-0.007284
0.004640
-0.007165
0.003799
-0.007026
0.003014
-0.006895
0.002242
-0.006722
0.001521
-0.006526
0.000816
-0.006304
0.000142
-0.006045
-0.000487
-0.005774
-0.001108
-0.005488
-0.001675
-0.005192
-0.002218
-0.004851
-0.002723
-0.004471
-0.003200
-0.004085
-0.003661
0.000532
-0.001228
0.001474
-0.002023
0.002425
-0.002790
0.003442
-0.003540
0.004483
-0.004247
0.005552
-0.004902
0.006685
-0.005515
0.007831
-0.006102
0.009022
-0.006662
0.010228
-0.007163
0.011491
-0.007626
0.012786
-0.008071
0.014099
-0.008468
0.015444
-0.008820
0.016828
-0.009160
0.018221
-0.009456
0.019658
-0.009725
0.021121
-0.009962
0.022608
-0.010160
0.024102
-0.010311
0.025643
-0.010482
0.027174
-0.010579
0.028742
-0.010670
0.030306
-0.010719
0.031916
-0.010759
0.033516
-0.010762
0.035135
-0.010740
0.036751
-0.010713
0.038374
-0.010649
0.039999
-0.010560
0.041634
-0.010470
0.043267
-0.010348
0.044890
-0.010202
0.046514
-0.010052
0.048124
-0.009893
0.049732
-0.009708
0.051333
-0.009522
0.052919
-0.009323
0.054482
-0.009084
0.056016
-0.008851
0.057540
-0.008631
0.059040
-0.008389
0.060517
-0.008141
0.061958
-0.007882
0.063388
-0.007635
0.064766
-0.007359
0.066123
-0.007089
0.067429
-0.006834
0.068716
-0.006570
0.069950
-0.006293
0.071136
-0.006029
0.072279
-0.005762
0.073385
-0.005502
0.074446
-0.005256
0.075431
-0.005000
0.076392
-0.004741
0.077306
-0.004511
0.078121
-0.004254
0.078917
-0.004033
0.079653
-0.003802
0.080308
-0.003586
0.080913
-0.003374
0.081470
-0.003180
0.081967
-0.003013
0.082383
-0.002817
0.082746
-0.002630
0.083022
-0.002482
0.083277
-0.002332
0.083443
-0.002213
0.083547
-0.002081
0.083582
-0.001964
0.083570
-0.001862