# vtk DataFile Version 2.0
Generated volume Mesh
ASCII
DATASET UNSTRUCTURED_GRID
POINTS 1240 float
-0.212153 -0.150304 0.000000
-0.206421 -0.141033 0.000000
-0.215099 -0.146056 0.000000
-0.209122 -0.154492 0.000000
-0.217961 -0.141751 0.000000
-0.206009 -0.158620 0.000000
-0.220736 -0.137389 0.000000
-0.202815 -0.162684 0.000000
-0.223424 -0.132973 0.000000
-0.226023 -0.128505 0.000000
-0.199540 -0.166684 0.000000
-0.228534 -0.123985 0.000000
-0.196187 -0.170619 0.000000
-0.230953 -0.119417 0.000000
-0.192756 -0.174486 0.000000
-0.233282 -0.114802 0.000000
-0.189249 -0.178283 0.000000
-0.235519 -0.110141 0.000000
-0.185666 -0.182011 0.000000
-0.237662 -0.105436 0.000000
-0.182011 -0.185666 0.000000
-0.239711 -0.100690 0.000000
-0.178283 -0.189249 0.000000
-0.241666 -0.095904 0.000000
-0.174486 -0.192756 0.000000
-0.243525 -0.091081 0.000000
-0.170619 -0.196187 0.000000
-0.245288 -0.086221 0.000000
-0.166684 -0.199540 0.000000
-0.246953 -0.081327 0.000000
-0.162684 -0.202815 0.000000
-0.248521 -0.076401 0.000000
-0.158620 -0.206009 0.000000
-0.249991 -0.071445 0.000000
-0.154492 -0.209122 0.000000
-0.251363 -0.066459 0.000000
-0.150304 -0.212153 0.000000
-0.252634 -0.061448 0.000000
-0.146056 -0.215099 0.000000
-0.253806 -0.056412 0.000000
-0.141751 -0.217961 0.000000
-0.137389 -0.220736 0.000000
-0.254878 -0.051354 0.000000
-0.132973 -0.223424 0.000000
-0.255849 -0.046275 0.000000
-0.128505 -0.226023 0.000000
-0.256718 -0.041179 0.000000
-0.123985 -0.228534 0.000000
-0.257486 -0.036067 0.000000
-0.119417 -0.230953 0.000000
-0.258152 -0.030940 0.000000
-0.114802 -0.233282 0.000000
-0.258717 -0.025802 0.000000
-0.110141 -0.235519 0.000000
-0.259178 -0.020654 0.000000
-0.105436 -0.237662 0.000000
-0.259538 -0.015498 0.000000
-0.100690 -0.239711 0.000000
-0.259794 -0.010336 0.000000
-0.095904 -0.241666 0.000000
-0.259949 -0.005169 0.000000
-0.091081 -0.243525 0.000000
-0.260000 0.000000 0.000000
-0.259949 0.005169 0.000000
-0.086221 -0.245288 0.000000
-0.259794 0.010336 0.000000
-0.081327 -0.246953 0.000000
-0.259538 0.015498 0.000000
-0.076401 -0.248521 0.000000
-0.259178 0.020654 0.000000
-0.071445 -0.249991 0.000000
-0.258717 0.025802 0.000000
-0.066459 -0.251363 0.000000
-0.258152 0.030940 0.000000
-0.061448 -0.252634 0.000000
-0.257486 0.036067 0.000000
-0.056412 -0.253806 0.000000
-0.256718 0.041179 0.000000
-0.051354 -0.254878 0.000000
-0.255849 0.046275 0.000000
-0.046275 -0.255849 0.000000
-0.254878 0.051354 0.000000
-0.041179 -0.256718 0.000000
-0.253806 0.056412 0.000000
-0.036067 -0.257486 0.000000
-0.252634 0.061448 0.000000
-0.030940 -0.258152 0.000000
-0.251363 0.066459 0.000000
-0.025802 -0.258717 0.000000
-0.249991 0.071445 0.000000
-0.020654 -0.259178 0.000000
-0.248521 0.076401 0.000000
-0.015498 -0.259538 0.000000
-0.010336 -0.259794 0.000000
-0.246953 0.081327 0.000000
-0.005169 -0.259949 0.000000
-0.245288 0.086221 0.000000
0.000000 -0.260000 0.000000
-0.243525 0.091081 0.000000
0.005169 -0.259949 0.000000
-0.241666 0.095904 0.000000
0.010336 -0.259794 0.000000
-0.239711 0.100690 0.000000
0.015498 -0.259538 0.000000
-0.237662 0.105436 0.000000
0.020654 -0.259178 0.000000
-0.235519 0.110141 0.000000
0.025802 -0.258717 0.000000
-0.233282 0.114802 0.000000
0.030940 -0.258152 0.000000
-0.230953 0.119417 0.000000
0.036067 -0.257486 0.000000
-0.228534 0.123985 0.000000
0.041179 -0.256718 0.000000
-0.226023 0.128505 0.000000
-0.223424 0.132973 0.000000
0.046275 -0.255849 0.000000
-0.220736 0.137389 0.000000
0.051354 -0.254878 0.000000
-0.217961 0.141751 0.000000
0.056412 -0.253806 0.000000
-0.215099 0.146056 0.000000
0.061448 -0.252634 0.000000
-0.212153 0.150304 0.000000
0.066459 -0.251363 0.000000
-0.209122 0.154492 0.000000
0.071445 -0.249991 0.000000
-0.206009 0.158620 0.000000
0.076401 -0.248521 0.000000
-0.202815 0.162684 0.000000
0.081327 -0.246953 0.000000
-0.199540 0.166684 0.000000
0.086221 -0.245288 0.000000
-0.196187 0.170619 0.000000
0.091081 -0.243525 0.000000
-0.192756 0.174486 0.000000
0.095904 -0.241666 0.000000
-0.189249 0.178283 0.000000
0.100690 -0.239711 0.000000
-0.185666 0.182011 0.000000
0.105436 -0.237662 0.000000
-0.182011 0.185666 0.000000
0.110141 -0.235519 0.000000
-0.178283 0.189249 0.000000
0.114802 -0.233282 0.000000
-0.174486 0.192756 0.000000
0.119417 -0.230953 0.000000
0.123985 -0.228534 0.000000
-0.170619 0.196187 0.000000
0.128505 -0.226023 0.000000
-0.166684 0.199540 0.000000
0.132973 -0.223424 0.000000
-0.162684 0.202815 0.000000
0.137389 -0.220736 0.000000
-0.158620 0.206009 0.000000
0.141751 -0.217961 0.000000
-0.154492 0.209122 0.000000
0.146056 -0.215099 0.000000
-0.150304 0.212153 0.000000
0.150304 -0.212153 0.000000
-0.146056 0.215099 0.000000
0.154492 -0.209122 0.000000
-0.141751 0.217961 0.000000
0.158620 -0.206009 0.000000
-0.137389 0.220736 0.000000
0.162684 -0.202815 0.000000
-0.132973 0.223424 0.000000
-0.128505 0.226023 0.000000
0.166684 -0.199540 0.000000
-0.123985 0.228534 0.000000
0.170619 -0.196187 0.000000
-0.119417 0.230953 0.000000
0.174486 -0.192756 0.000000
-0.114802 0.233282 0.000000
0.178283 -0.189249 0.000000
-0.110141 0.235519 0.000000
0.182011 -0.185666 0.000000
-0.105436 0.237662 0.000000
0.185666 -0.182011 0.000000
-0.100690 0.239711 0.000000
0.189249 -0.178283 0.000000
-0.095904 0.241666 0.000000
0.192756 -0.174486 0.000000
-0.091081 0.243525 0.000000
0.196187 -0.170619 0.000000
-0.086221 0.245288 0.000000
0.199540 -0.166684 0.000000
-0.081327 0.246953 0.000000
0.202815 -0.162684 0.000000
-0.076401 0.248521 0.000000
0.206009 -0.158620 0.000000
-0.071445 0.249991 0.000000
0.209122 -0.154492 0.000000
-0.066459 0.251363 0.000000
0.212153 -0.150304 0.000000
-0.061448 0.252634 0.000000
0.215099 -0.146056 0.000000
-0.056412 0.253806 0.000000
0.217961 -0.141751 0.000000
0.220736 -0.137389 0.000000
-0.051354 0.254878 0.000000
0.223424 -0.132973 0.000000
-0.046275 0.255849 0.000000
0.226023 -0.128505 0.000000
-0.041179 0.256718 0.000000
0.228534 -0.123985 0.000000
-0.036067 0.257486 0.000000
0.230953 -0.119417 0.000000
-0.030940 0.258152 0.000000
0.233282 -0.114802 0.000000
-0.025802 0.258717 0.000000
0.235519 -0.110141 0.000000
-0.020654 0.259178 0.000000
0.237662 -0.105436 0.000000
-0.015498 0.259538 0.000000
0.239711 -0.100690 0.000000
-0.010336 0.259794 0.000000
0.241666 -0.095904 0.000000
-0.005169 0.259949 0.000000
0.243525 -0.091081 0.000000
0.000000 0.260000 0.000000
0.245288 -0.086221 0.000000
0.005169 0.259949 0.000000
0.246953 -0.081327 0.000000
0.010336 0.259794 0.000000
0.248521 -0.076401 0.000000
0.015498 0.259538 0.000000
0.249991 -0.071445 0.000000
0.020654 0.259178 0.000000
0.251363 -0.066459 0.000000
0.025802 0.258717 0.000000
0.252634 -0.061448 0.000000
0.030940 0.258152 0.000000
0.253806 -0.056412 0.000000
0.036067 0.257486 0.000000
0.254878 -0.051354 0.000000
0.041179 0.256718 0.000000
0.255849 -0.046275 0.000000
0.046275 0.255849 0.000000
0.256718 -0.041179 0.000000
0.051354 0.254878 0.000000
0.257486 -0.036067 0.000000
0.056412 0.253806 0.000000
0.258152 -0.030940 0.000000
0.061448 0.252634 0.000000
0.258717 -0.025802 0.000000
0.066459 0.251363 0.000000
0.259178 -0.020654 0.000000
0.071445 0.249991 0.000000
0.259538 -0.015498 0.000000
0.076401 0.248521 0.000000
0.259794 -0.010336 0.000000
0.081327 0.246953 0.000000
0.259949 -0.005169 0.000000
0.086221 0.245288 0.000000
0.260000 0.000000 0.000000
0.091081 0.243525 0.000000
0.259949 0.005169 0.000000
0.095904 0.241666 0.000000
0.259794 0.010336 0.000000
0.100690 0.239711 0.000000
0.259538 0.015498 0.000000
0.105436 0.237662 0.000000
0.259178 0.020654 0.000000
0.110141 0.235519 0.000000
0.258717 0.025802 0.000000
0.114802 0.233282 0.000000
0.258152 0.030940 0.000000
0.119417 0.230953 0.000000
0.257486 0.036067 0.000000
0.123985 0.228534 0.000000
0.256718 0.041179 0.000000
0.128505 0.226023 0.000000
0.255849 0.046275 0.000000
0.132973 0.223424 0.000000
0.254878 0.051354 0.000000
0.137389 0.220736 0.000000
0.253806 0.056412 0.000000
0.141751 0.217961 0.000000
0.252634 0.061448 0.000000
0.146056 0.215099 0.000000
0.251363 0.066459 0.000000
0.150304 0.212153 0.000000
0.249991 0.071445 0.000000
0.154492 0.209122 0.000000
0.248521 0.076401 0.000000
0.158620 0.206009 0.000000
0.246953 0.081327 0.000000
0.162684 0.202815 0.000000
0.245288 0.086221 0.000000
0.166684 0.199540 0.000000
0.243525 0.091081 0.000000
0.170619 0.196187 0.000000
0.241666 0.095904 0.000000
0.174486 0.192756 0.000000
0.239711 0.100690 0.000000
0.178283 0.189249 0.000000
0.237662 0.105436 0.000000
0.182011 0.185666 0.000000
0.235519 0.110141 0.000000
0.185666 0.182011 0.000000
0.233282 0.114802 0.000000
0.189249 0.178283 0.000000
0.230953 0.119417 0.000000
0.192756 0.174486 0.000000
0.228534 0.123985 0.000000
0.196187 0.170619 0.000000
0.226023 0.128505 0.000000
0.199540 0.166684 0.000000
0.223424 0.132973 0.000000
0.202815 0.162684 0.000000
0.220736 0.137389 0.000000
0.206009 0.158620 0.000000
0.217961 0.141751 0.000000
0.209122 0.154492 0.000000
0.215099 0.146056 0.000000
0.212153 0.150304 0.000000
-0.203462 -0.145269 0.000000
-0.209292 -0.136737 0.000000
-0.200416 -0.149443 0.000000
-0.212073 -0.132382 0.000000
-0.197285 -0.153553 0.000000
-0.214764 -0.127971 0.000000
-0.194070 -0.157598 0.000000
-0.217362 -0.123505 0.000000
-0.190771 -0.161575 0.000000
-0.219868 -0.118987 0.000000
-0.187391 -0.165483 0.000000
-0.222281 -0.114417 0.000000
-0.183931 -0.169320 0.000000
-0.224598 -0.109799 0.000000
-0.180392 -0.173086 0.000000
-0.226819 -0.105134 0.000000
-0.176777 -0.176777 0.000000
-0.228943 -0.100424 0.000000
-0.173086 -0.180392 0.000000
-0.230970 -0.095671 0.000000
-0.169320 -0.183931 0.000000
-0.232898 -0.090877 0.000000
-0.165483 -0.187391 0.000000
-0.234726 -0.086044 0.000000
-0.161575 -0.190771 0.000000
-0.236454 -0.081175 0.000000
-0.157598 -0.194070 0.000000
-0.238081 -0.076271 0.000000
-0.153553 -0.197285 0.000000
-0.239607 -0.071334 0.000000
-0.149443 -0.200416 0.000000
-0.241030 -0.066366 0.000000
-0.145269 -0.203462 0.000000
-0.242350 -0.061370 0.000000
-0.141033 -0.206421 0.000000
[...]
POINT_DATA 1240
SCALARS u1 float
LOOKUP_TABLE default
-2e-05
-2e-05
-2e-05
-3e-05
-2e-05
-3e-05
-2e-05
-3e-05
-2e-05
-2e-05
-3e-05
-2e-05
-3e-05
-2e-05
-3e-05
-2e-05
-3e-05
-2e-05
-3e-05
-2e-05
-3e-05
-2e-05
-3e-05
-3e-05
-3e-05
-3e-05
-3e-05
-3e-05
-2e-05
-3e-05
-2e-05
-4e-05
-2e-05
-4e-05
-2e-05
-4e-05
-1e-05
-5e-05
-1e-05
-5e-05
-1e-05
-1e-05
-6e-05
-1e-05
-6e-05
-9e-06
-7e-05
-9e-06
-7e-05
-9e-06
-8e-05
-9e-06
-8e-05
-9e-06
-8e-05
-9e-06
-8e-05
-9e-06
-9e-05
-9e-06
-9e-05
-9e-06
-9e-05
-9e-05
-1e-05
-9e-05
-1e-05
-8e-05
-1e-05
-8e-05
-1e-05
-8e-05
-1e-05
-8e-05
-1e-05
-7e-05
-1e-05
-7e-05
-1e-05
-6e-05
-1e-05
-6e-05
-1e-05
-5e-05
-1e-05
-5e-05
-1e-05
-5e-05
-1e-05
-4e-05
-1e-05
-4e-05
-1e-05
-9e-06
-4e-05
-8e-06
-3e-05
-7e-06
-3e-05
-5e-06
-3e-05
-4e-06
-3e-05
-3e-06
-3e-05
-2e-06
-2e-05
-1e-06
-2e-05
-3e-07
-2e-05
4e-07
-2e-05
8e-07
-2e-05
-2e-05
9e-07
-2e-05
8e-07
-3e-05
5e-07
-3e-05
-1e-07
-3e-05
-9e-07
-3e-05
-2e-06
-3e-05
-3e-06
-3e-05
-3e-06
-4e-05
-4e-06
-4e-05
-5e-06
-4e-05
-5e-06
-4e-05
-5e-06
-4e-05
-5e-06
-4e-05
-5e-06
-4e-05
-5e-06
-3e-05
-5e-06
-5e-06
-3e-05
-5e-06
-3e-05
-5e-06
-3e-05
-4e-06
-2e-05
-3e-06
-2e-05
-2e-06
-2e-05
-4e-07
-2e-05
2e-06
-2e-05
4e-06
-2e-05
6e-06
-2e-05
-2e-05
9e-06
-2e-05
1e-05
-2e-05
1e-05
-2e-05
1e-05
-2e-05
2e-05
-2e-05
2e-05
-2e-05
2e-05
-2e-05
2e-05
-2e-05
2e-05
-2e-05
2e-05
-2e-05
1e-05
-2e-05
1e-05
-2e-05
1e-05
-2e-05
8e-06
-2e-05
6e-06
-2e-05
4e-06
3e-06
-2e-05
2e-06
-2e-05
2e-06
-2e-05
2e-06
-2e-05
2e-06
-2e-05
3e-06
-2e-05
4e-06
-2e-05
5e-06
-2e-05
6e-06
-2e-05
8e-06
-2e-05
1e-05
-1e-05
1e-05
-1e-05
1e-05
-1e-05
2e-05
-1e-05
2e-05
-1e-05
2e-05
-9e-06
3e-05
-8e-06
3e-05
-7e-06
4e-05
-7e-06
4e-05
-7e-06
5e-05
-7e-06
5e-05
-7e-06
6e-05
-7e-06
6e-05
-8e-06
6e-05
-9e-06
6e-05
-1e-05
7e-05
-1e-05
7e-05
-1e-05
7e-05
-1e-05
7e-05
-1e-05
7e-05
-1e-05
6e-05
-1e-05
6e-05
-1e-05
6e-05
-1e-05
6e-05
-1e-05
5e-05
-1e-05
5e-05
-1e-05
4e-05
-1e-05
4e-05
-1e-05
3e-05
-1e-05
3e-05
-8e-06
2e-05
-7e-06
2e-05
-5e-06
2e-05
-2e-06
1e-05
2e-07
9e-06
3e-06
7e-06
5e-06
5e-06
7e-06
3e-06
9e-06
2e-06
1e-05
7e-07
1e-05
-3e-07
1e-05
-1e-06
1e-05
-2e-06
1e-05
-2e-06
1e-05
-2e-06
9e-06
-1e-06
7e-06
-8e-08
5e-06
1e-06
3e-06
-2e-05
-2e-05
-2e-05
-2e-05
-3e-05
-2e-05
-3e-05
-2e-05
-3e-05
-2e-05
-3e-05
-2e-05
-3e-05
-2e-05
-3e-05
-2e-05
-3e-05
-2e-05
-3e-05
-3e-05
-3e-05
-3e-05
-3e-05
-3e-05
-3e-05
-3e-05
-3e-05
-4e-05
-2e-05
-4e-05
-2e-05
-4e-05
-2e-05
-5e-05
-2e-05
-5e-05
-1e-05
-6e-05
-1e-05
-6e-05
-1e-05
-7e-05
-1e-05
-7e-05
-9e-06
-8e-05
-8e-06
-8e-05
-8e-06
-8e-05
-7e-06
-9e-05
-7e-06
-9e-05
-6e-06
-9e-05
-6e-06
-9e-05
-6e-06
-9e-05
-5e-06
-9e-05
-5e-06
-9e-05
-5e-06
-8e-05
-5e-06
-8e-05
-5e-06
-8e-05
-5e-06
-7e-05
-6e-06
-7e-05
-6e-06
-7e-05
-6e-06
-6e-05
-7e-06
-6e-05
-7e-06
-5e-05
-7e-06
-5e-05
-7e-06
-4e-05
-7e-06
-4e-05
-7e-06
-4e-05
-7e-06
-3e-05
-7e-06
-3e-05
-7e-06
-3e-05
-7e-06
-3e-05
-7e-06
-3e-05
-7e-06
-3e-05
-7e-06
-2e-05
-7e-06
-2e-05
-7e-06
-2e-05
-8e-06
-2e-05
-8e-06
-2e-05
-8e-06
-2e-05
-9e-06
-2e-05
-9e-06
-3e-05
-9e-06
-3e-05
-9e-06
-3e-05
-9e-06
-3e-05
-9e-06
-3e-05
-8e-06
-4e-05
-8e-06
-4e-05
-8e-06
-4e-05
-7e-06
-4e-05
-7e-06
-4e-05
-7e-06
-4e-05
-6e-06
-4e-05
-6e-06
-3e-05
-5e-06
-3e-05
-3e-06
-3e-05
-2e-06
-3e-05
-1e-07
-3e-05
2e-06
-2e-05
4e-06
-2e-05
7e-06
-2e-05
9e-06
-2e-05
1e-05
-2e-05
1e-05
-2e-05
1e-05
-1e-05
2e-05
-1e-05
2e-05
-1e-05
2e-05
-1e-05
2e-05
-1e-05
2e-05
-1e-05
1e-05
-1e-05
1e-05
-1e-05
1e-05
-1e-05
9e-06
-1e-05
7e-06
-1e-05
5e-06
-1e-05
4e-06
-1e-05
3e-06
-1e-05
2e-06
-1e-05
2e-06
-1e-05
2e-06
-1e-05
2e-06
-1e-05
3e-06
-1e-05
4e-06
-1e-05
5e-06
-1e-05
7e-06
-1e-05
8e-06
-1e-05
1e-05
-1e-05
1e-05
-1e-05
1e-05
-1e-05
2e-05
-1e-05
2e-05
-1e-05
3e-05
-1e-05
3e-05
-1e-05
3e-05
-1e-05
4e-05
-1e-05
4e-05
-2e-05
5e-05
-2e-05
5e-05
-2e-05
6e-05
-2e-05
6e-05
-2e-05
6e-05
-2e-05
6e-05
-2e-05
7e-05
-2e-05
7e-05
-2e-05
7e-05
-1e-05
7e-05
-1e-05
7e-05
-1e-05
6e-05
-1e-05
6e-05
-1e-05
6e-05
-1e-05
6e-05
-1e-05
5e-05
-1e-05
5e-05
-1e-05
4e-05
-8e-06
4e-05
-6e-06
3e-05
-4e-06
3e-05
-2e-06
2e-05
7e-07
2e-05
3e-06
2e-05
6e-06
1e-05
8e-06
1e-05
9e-06
7e-06
1e-05
5e-06
1e-05
4e-06
1e-05
2e-06
1e-05
1e-06
1e-05
-7e-08
1e-05
-1e-06
8e-06
-2e-06
7e-06
-2e-06
5e-06
-2e-06
3e-06
-1e-06
-2e-07
1e-06
-2e-05
-2e-05
-2e-05
-2e-05
-2e-05
-2e-05
-3e-05
-2e-05
-2e-05
-3e-05
-3e-05
-2e-05
-2e-05
-3e-05
-3e-05
-2e-05
-2e-05
-2e-05
-3e-05
-3e-05
-2e-05
-2e-05
-3e-05
-3e-05
-2e-05
-2e-05
-3e-05
-3e-05
-2e-05
-2e-05
-3e-05
-3e-05
-2e-05
-2e-05
-3e-05
-3e-05
-2e-05
-2e-05
-3e-05
-3e-05
-3e-05
-3e-05
-3e-05
-3e-05
-3e-05
-3e-05
-3e-05
-3e-05
-3e-05
-3e-05
-3e-05
-3e-05
-3e-05
-3e-05
-3e-05
-2e-05
-3e-05
-3e-05
-2e-05
-2e-05
-4e-05
-4e-05
-2e-05
-2e-05
-4e-05
-4e-05
-2e-05
-2e-05
-5e-05
-5e-05
-2e-05
-1e-05
-5e-05
-5e-05
-1e-05
-1e-05
-6e-05
-6e-05
-1e-05
-1e-05
-1e-05
-6e-05
-6e-05
-1e-05
-1e-05
-7e-05
-7e-05
-1e-05
-9e-06
-7e-05
-7e-05
-9e-06
-9e-06
-7e-05
-8e-05
-9e-06
-9e-06
-8e-05
-8e-05
-8e-06
-8e-06
-8e-05
-8e-05
-8e-06
-8e-06
-8e-05
-8e-05
-7e-06
-8e-06
-9e-05
-9e-05
-7e-06
-8e-06
-9e-05
-9e-05
-7e-06
-8e-06
-9e-05
-9e-05
-7e-06
-8e-06
-9e-05
-9e-05
-9e-05
-7e-06
-8e-06
-9e-05
-9e-05
-7e-06
-9e-06
-9e-05
-8e-05
-7e-06
-9e-06
-8e-05
-8e-05
-7e-06
-1e-05
-8e-05
-8e-05
-8e-06
-1e-05
-8e-05
-8e-05
-8e-06
-1e-05
-8e-05
-7e-05
-8e-06
-1e-05
-7e-05
-7e-05
-9e-06
-1e-05
-7e-05
-6e-05
-9e-06
-1e-05
-6e-05
-6e-05
-9e-06
-1e-05
-6e-05
-5e-05
-9e-06
-1e-05
-5e-05
-5e-05
-9e-06
-1e-05
-5e-05
-4e-05
-9e-06
-1e-05
-4e-05
-4e-05
-8e-06
-9e-06
-4e-05
-4e-05
-8e-06
-9e-06
-8e-06
-4e-05
-3e-05
-8e-06
-7e-06
-3e-05
-3e-05
-7e-06
-6e-06
-3e-05
-3e-05
-6e-06
-6e-06
-3e-05
-3e-05
-6e-06
-5e-06
-3e-05
-3e-05
-6e-06
-4e-06
-3e-05
-3e-05
-5e-06
-3e-06
-3e-05
-2e-05
-5e-06
-3e-06
-2e-05
-2e-05
-5e-06
-2e-06
-2e-05
-2e-05
-5e-06
-2e-06
-2e-05
-2e-05
-5e-06
-2e-06
-2e-05
-2e-05
-2e-05
-5e-06
-2e-06
-2e-05
-2e-05
-5e-06
-2e-06
-2e-05
-2e-05
-5e-06
-3e-06
-2e-05
-3e-05
-6e-06
-3e-06
-3e-05
-3e-05
-6e-06
-4e-06
-3e-05
-3e-05
-7e-06
-4e-06
-3e-05
-3e-05
-7e-06
-5e-06
-3e-05
-3e-05
-7e-06
-5e-06
-3e-05
-4e-05
-7e-06
-6e-06
-4e-05
-4e-05
-7e-06
-6e-06
-4e-05
-4e-05
-7e-06
-6e-06
-4e-05
-4e-05
-7e-06
-6e-06
-4e-05
-4e-05
-7e-06
-6e-06
-4e-05
-4e-05
-6e-06
-6e-06
-4e-05
-4e-05
-6e-06
-6e-06
-4e-05
-3e-05
-6e-06
-6e-06
-5e-06
-3e-05
-3e-05
-5e-06
-5e-06
-3e-05
-3e-05
-4e-06
-4e-06
-3e-05
-3e-05
-3e-06
-3e-06
-3e-05
-2e-05
-2e-06
-2e-06
-2e-05
-2e-05
-9e-08
-2e-07
-2e-05
-2e-05
2e-06
2e-06
-2e-05
-2e-05
4e-06
4e-06
-2e-05
-2e-05
6e-06
6e-06
-2e-05
-2e-05
9e-06
9e-06
-2e-05
-2e-05
-2e-05
1e-05
1e-05
-2e-05
-2e-05
1e-05
1e-05
-2e-05
-2e-05
1e-05
1e-05
-1e-05
-2e-05
2e-05
2e-05
-1e-05
-1e-05
2e-05
2e-05
-1e-05
-1e-05
2e-05
2e-05
-1e-05
-1e-05
2e-05
2e-05
-1e-05
-1e-05
2e-05
2e-05
-1e-05
-2e-05
1e-05
2e-05
-1e-05
-2e-05
1e-05
1e-05
-1e-05
-2e-05
1e-05
1e-05
-1e-05
-2e-05
9e-06
9e-06
-1e-05
-2e-05
7e-06
7e-06
-1e-05
-2e-05
5e-06
6e-06
-2e-05
-2e-05
4e-06
4e-06
-2e-05
-2e-05
3e-06
3e-06
2e-06
-2e-05
-2e-05
2e-06
2e-06
-2e-05
-2e-05
2e-06
2e-06
-2e-05
-2e-05
2e-06
2e-06
-2e-05
-2e-05
3e-06
3e-06
-2e-05
-2e-05
3e-06
4e-06
-2e-05
-2e-05
4e-06
5e-06
-2e-05
-2e-05
6e-06
6e-06
-2e-05
-2e-05
7e-06
7e-06
-1e-05
-2e-05
9e-06
9e-06
-1e-05
-1e-05
1e-05
1e-05
-1e-05
-1e-05
-1e-05
1e-05
1e-05
-1e-05
-1e-05
2e-05
2e-05
-1e-05
-1e-05
2e-05
2e-05
-1e-05
-1e-05
2e-05
2e-05
-1e-05
-1e-05
3e-05
3e-05
-1e-05
-1e-05
3e-05
3e-05
-1e-05
-9e-06
4e-05
4e-05
-1e-05
-9e-06
4e-05
4e-05
-1e-05
-9e-06
5e-05
5e-05
-1e-05
-1e-05
5e-05
5e-05
-1e-05
-1e-05
5e-05
6e-05
-1e-05
-1e-05
6e-05
6e-05
-1e-05
-1e-05
6e-05
6e-05
-1e-05
-1e-05
6e-05
6e-05
-1e-05
-1e-05
7e-05
7e-05
7e-05
-1e-05
-1e-05
7e-05
7e-05
-1e-05
-1e-05
7e-05
7e-05
-1e-05
-1e-05
7e-05
7e-05
-1e-05
-1e-05
7e-05
7e-05
-1e-05
-1e-05
6e-05
6e-05
-1e-05
-1e-05
6e-05
6e-05
-1e-05
-1e-05
6e-05
6e-05
-1e-05
-1e-05
6e-05
5e-05
-1e-05
-1e-05
5e-05
5e-05
-1e-05
-1e-05
5e-05
5e-05
-1e-05
-1e-05
4e-05
4e-05
-1e-05
-1e-05
4e-05
4e-05
-8e-06
-9e-06
3e-05
3e-05
-6e-06
-8e-06
3e-05
3e-05
-4e-06
-6e-06
2e-05
2e-05
-2e-06
-4e-06
2e-05
2e-05
5e-07
-2e-06
2e-05
1e-05
3e-06
3e-07
1e-05
1e-05
5e-06
3e-06
1e-05
8e-06
7e-06
5e-06
8e-06
6e-06
9e-06
7e-06
6e-06
4e-06
1e-05
9e-06
4e-06
3e-06
1e-05
1e-05
3e-06
2e-06
1e-05
1e-05
1e-06
4e-07
1e-05
1e-05
1e-07
-6e-07
1e-05
1e-05
-9e-07
-1e-06
1e-05
1e-05
-2e-06
-2e-06
9e-06
1e-05
-2e-06
-2e-06
7e-06
9e-06
-2e-06
-2e-06
5e-06
7e-06
-1e-06
-1e-06
3e-06
-2e-07
1e-06
5e-06
-2e-07
3e-06
1e-06
SCALARS u2 float
LOOKUP_TABLE default
-6e-06
-8e-06
-4e-06
-8e-06
-3e-06
-1e-05
-2e-06
-1e-05
-1e-06
-9e-07
-1e-05
-8e-07
-2e-05
-7e-07
-2e-05
-6e-07
-2e-05
-6e-07
-2e-05
-6e-07
-2e-05
-8e-07
-2e-05
-1e-06
-2e-05
-1e-06
-2e-05
-2e-06
-2e-05
-3e-06
-2e-05
-4e-06
-2e-05
-4e-06
-2e-05
-5e-06
-1e-05
-6e-06
-1e-05
-7e-06
-1e-05
-9e-06
-7e-06
-8e-06
-7e-06
-8e-06
-7e-06
-8e-06
-6e-06
-8e-06
-6e-06
-9e-06
-5e-06
-1e-05
-4e-06
-1e-05
-3e-06
-1e-05
-2e-06
-1e-05
-7e-07
-2e-05
6e-07
2e-06
-2e-05
3e-06
-2e-05
4e-06
-2e-05
5e-06
-3e-05
6e-06
-3e-05
7e-06
-4e-05
8e-06
-4e-05
8e-06
-4e-05
8e-06
-5e-05
8e-06
-5e-05
8e-06
-6e-05
7e-06
-6e-05
7e-06
-7e-05
6e-06
-7e-05
5e-06
-7e-05
-7e-05
4e-06
-7e-05
4e-06
-7e-05
3e-06
-7e-05
3e-06
-7e-05
3e-06
-7e-05
2e-06
-7e-05
3e-06
-6e-05
3e-06
-6e-05
3e-06
-6e-05
3e-06
-5e-05
3e-06
4e-06
-5e-05
4e-06
-4e-05
5e-06
-4e-05
7e-06
-3e-05
8e-06
-3e-05
1e-05
-2e-05
1e-05
-2e-05
2e-05
-2e-05
2e-05
-2e-05
2e-05
-1e-05
2e-05
-1e-05
2e-05
-9e-06
3e-05
-8e-06
3e-05
-7e-06
3e-05
-6e-06
3e-05
-5e-06
-4e-06
3e-05
-4e-06
3e-05
-4e-06
2e-05
-5e-06
2e-05
-6e-06
2e-05
-8e-06
2e-05
-9e-06
2e-05
-1e-05
1e-05
-1e-05
1e-05
-1e-05
1e-05
1e-05
-2e-05
1e-05
-2e-05
1e-05
-2e-05
1e-05
-2e-05
2e-05
-2e-05
2e-05
-2e-05
2e-05
-2e-05
2e-05
-1e-05
2e-05
-1e-05
2e-05
-9e-06
3e-05
-6e-06
3e-05
-4e-06
3e-05
-2e-06
4e-05
5e-07
4e-05
2e-06
5e-05
3e-06
4e-06
5e-05
5e-06
6e-05
6e-06
6e-05
6e-06
7e-05
6e-06
7e-05
6e-06
7e-05
6e-06
8e-05
6e-06
8e-05
6e-06
8e-05
6e-06
8e-05
6e-06
8e-05
5e-06
8e-05
4e-06
8e-05
4e-06
8e-05
3e-06
8e-05
2e-06
7e-05
1e-06
7e-05
8e-07
7e-05
5e-07
6e-05
4e-07
6e-05
6e-07
5e-05
1e-06
5e-05
2e-06
4e-05
2e-06
4e-05
3e-06
4e-05
4e-06
3e-05
6e-06
3e-05
7e-06
3e-05
8e-06
2e-05
9e-06
2e-05
1e-05
2e-05
1e-05
2e-05
1e-05
2e-05
1e-05
2e-05
1e-05
2e-05
2e-05
2e-05
2e-05
2e-05
2e-05
2e-05
2e-05
2e-05
2e-05
2e-05
1e-05
2e-05
1e-05
2e-05
1e-05
2e-05
1e-05
3e-05
1e-05
3e-05
1e-05
3e-05
1e-05
3e-05
1e-05
3e-05
1e-05
3e-05
9e-06
3e-05
9e-06
3e-05
9e-06
3e-05
9e-06
3e-05
9e-06
3e-05
1e-05
2e-05
1e-05
2e-05
1e-05
2e-05
1e-05
2e-05
1e-05
1e-05
-1e-05
-6e-06
-1e-05
-4e-06
-1e-05
-3e-06
-2e-05
-1e-06
-2e-05
-6e-07
-2e-05
9e-08
-2e-05
6e-07
-2e-05
1e-06
-2e-05
1e-06
-2e-05
2e-06
-2e-05
2e-06
-2e-05
2e-06
-2e-05
3e-06
-2e-05
3e-06
-2e-05
3e-06
-1e-05
3e-06
-1e-05
3e-06
-1e-05
2e-06
-9e-06
2e-06
-8e-06
2e-06
-8e-06
1e-06
-8e-06
1e-06
-8e-06
8e-07
-9e-06
6e-07
-1e-05
6e-07
-1e-05
6e-07
-1e-05
7e-07
-1e-05
7e-07
-2e-05
8e-07
-2e-05
8e-07
-2e-05
8e-07
-2e-05
9e-07
-3e-05
9e-07
-3e-05
9e-07
-4e-05
7e-07
-4e-05
4e-07
-5e-05
1e-07
-5e-05
-2e-07
-5e-05
-5e-07
-6e-05
-8e-07
-6e-05
-1e-06
-7e-05
-1e-06
-7e-05
-1e-06
-7e-05
-1e-06
-7e-05
-7e-07
-7e-05
-4e-07
-7e-05
-7e-08
-7e-05
3e-07
-7e-05
7e-07
-7e-05
1e-06
-7e-05
2e-06
-7e-05
2e-06
-6e-05
3e-06
-6e-05
4e-06
-5e-05
5e-06
-5e-05
7e-06
-4e-05
9e-06
-4e-05
1e-05
-3e-05
1e-05
-3e-05
2e-05
-3e-05
2e-05
-2e-05
2e-05
-2e-05
2e-05
-2e-05
2e-05
-1e-05
3e-05
-1e-05
3e-05
-1e-05
3e-05
-8e-06
3e-05
-7e-06
3e-05
-6e-06
2e-05
-5e-06
2e-05
-4e-06
2e-05
-4e-06
2e-05
-4e-06
2e-05
-5e-06
2e-05
-6e-06
1e-05
-7e-06
1e-05
-9e-06
1e-05
-1e-05
1e-05
-1e-05
1e-05
-1e-05
1e-05
-2e-05
1e-05
-2e-05
2e-05
-2e-05
2e-05
-2e-05
2e-05
-2e-05
2e-05
-2e-05
2e-05
-2e-05
2e-05
-1e-05
3e-05
-1e-05
3e-05
-9e-06
3e-05
-7e-06
4e-05
-4e-06
4e-05
-2e-06
5e-05
9e-08
5e-05
2e-06
6e-05
4e-06
6e-05
5e-06
7e-05
6e-06
7e-05
7e-06
7e-05
7e-06
8e-05
8e-06
8e-05
8e-06
8e-05
8e-06
8e-05
9e-06
8e-05
9e-06
8e-05
9e-06
8e-05
1e-05
8e-05
1e-05
8e-05
1e-05
7e-05
1e-05
7e-05
1e-05
7e-05
9e-06
6e-05
9e-06
6e-05
9e-06
5e-05
8e-06
5e-05
8e-06
4e-05
8e-06
4e-05
8e-06
4e-05
8e-06
3e-05
8e-06
3e-05
8e-06
3e-05
8e-06
2e-05
8e-06
2e-05
8e-06
2e-05
8e-06
2e-05
8e-06
2e-05
8e-06
2e-05
8e-06
2e-05
8e-06
2e-05
7e-06
2e-05
7e-06
2e-05
7e-06
2e-05
6e-06
2e-05
6e-06
2e-05
6e-06
2e-05
6e-06
2e-05
6e-06
3e-05
6e-06
3e-05
6e-06
3e-05
7e-06
3e-05
7e-06
3e-05
7e-06
3e-05
8e-06
3e-05
8e-06
3e-05
9e-06
3e-05
9e-06
3e-05
1e-05
3e-05
1e-05
2e-05
1e-05
2e-05
1e-05
2e-05
2e-05
-6e-06
-8e-06
-8e-06
-6e-06
-4e-06
-1e-05
-1e-05
-4e-06
-3e-06
-1e-05
-1e-05
-3e-06
-2e-06
-1e-05
-1e-05
-2e-06
-1e-06
-8e-07
-2e-05
-2e-05
-9e-07
-6e-07
-2e-05
-2e-05
-3e-07
-3e-07
-2e-05
-2e-05
5e-08
-2e-07
-2e-05
-2e-05
4e-07
-7e-09
-2e-05
-2e-05
7e-07
5e-08
-2e-05
-2e-05
9e-07
3e-08
-2e-05
-2e-05
1e-06
-7e-08
-2e-05
-2e-05
1e-06
-3e-07
-2e-05
-2e-05
1e-06
-6e-07
-2e-05
-2e-05
1e-06
-1e-06
-2e-05
-2e-05
7e-07
-2e-06
-2e-05
-2e-05
5e-07
-2e-06
-1e-05
-1e-05
1e-07
-3e-06
-1e-05
-1e-05
-2e-07
-3e-06
-1e-05
-1e-05
-6e-07
-4e-06
-9e-06
-9e-06
-8e-06
-1e-06
-4e-06
-8e-06
-8e-06
-1e-06
-4e-06
-8e-06
-8e-06
-1e-06
-4e-06
-8e-06
-8e-06
-1e-06
-4e-06
-9e-06
-9e-06
-1e-06
-3e-06
-1e-05
-1e-05
-1e-06
-3e-06
-1e-05
-1e-05
-9e-07
-2e-06
-1e-05
-1e-05
-5e-07
-1e-06
-1e-05
-1e-05
-9e-08
-5e-07
-1e-05
-2e-05
4e-07
4e-07
-2e-05
-2e-05
1e-06
9e-07
2e-06
-2e-05
-2e-05
2e-06
3e-06
-2e-05
-2e-05
2e-06
3e-06
-2e-05
-3e-05
2e-06
4e-06
-3e-05
-3e-05
3e-06
5e-06
-3e-05
-3e-05
3e-06
5e-06
-4e-05
-4e-05
3e-06
5e-06
-4e-05
-4e-05
3e-06
6e-06
-5e-05
-5e-05
3e-06
5e-06
-5e-05
-5e-05
3e-06
5e-06
-6e-05
-6e-05
2e-06
5e-06
-6e-05
-6e-05
2e-06
4e-06
-6e-05
-6e-05
1e-06
4e-06
-7e-05
-7e-05
1e-06
3e-06
-7e-05
-7e-05
9e-07
3e-06
-7e-05
-7e-05
-7e-05
8e-07
2e-06
-7e-05
-7e-05
7e-07
2e-06
-7e-05
-7e-05
8e-07
2e-06
-7e-05
-7e-05
9e-07
2e-06
-7e-05
-7e-05
1e-06
2e-06
-7e-05
-7e-05
1e-06
2e-06
-7e-05
-7e-05
2e-06
2e-06
-7e-05
-6e-05
2e-06
2e-06
-6e-05
-6e-05
3e-06
3e-06
-6e-05
-6e-05
3e-06
3e-06
-5e-05
-5e-05
4e-06
4e-06
4e-06
-5e-05
-5e-05
5e-06
5e-06
-5e-05
-4e-05
7e-06
7e-06
-4e-05
-4e-05
9e-06
9e-06
-4e-05
-3e-05
1e-05
1e-05
-3e-05
-3e-05
1e-05
1e-05
-3e-05
-2e-05
2e-05
2e-05
-2e-05
-2e-05
2e-05
2e-05
-2e-05
-2e-05
2e-05
2e-05
-2e-05
-1e-05
2e-05
2e-05
-1e-05
-1e-05
2e-05
2e-05
-1e-05
-1e-05
3e-05
3e-05
-1e-05
-9e-06
3e-05
3e-05
-9e-06
-8e-06
3e-05
3e-05
-7e-06
-7e-06
3e-05
3e-05
-6e-06
-6e-06
3e-05
3e-05
-5e-06
-5e-06
-4e-06
2e-05
3e-05
-4e-06
-4e-06
2e-05
2e-05
-4e-06
-4e-06
2e-05
2e-05
-4e-06
-5e-06
2e-05
2e-05
-5e-06
-6e-06
2e-05
2e-05
-6e-06
-7e-06
2e-05
2e-05
-7e-06
-9e-06
1e-05
1e-05
-9e-06
-1e-05
1e-05
1e-05
-1e-05
-1e-05
1e-05
1e-05
-1e-05
-1e-05
1e-05
1e-05
1e-05
-1e-05
-2e-05
1e-05
1e-05
-2e-05
-2e-05
1e-05
1e-05
-2e-05
-2e-05
1e-05
2e-05
-2e-05
-2e-05
2e-05
2e-05
-2e-05
-2e-05
2e-05
2e-05
-2e-05
-2e-05
2e-05
2e-05
-2e-05
-2e-05
2e-05
2e-05
-2e-05
-1e-05
2e-05
2e-05
-1e-05
-1e-05
3e-05
3e-05
-1e-05
-9e-06
3e-05
3e-05
-9e-06
-6e-06
3e-05
3e-05
-7e-06
-4e-06
4e-05
4e-05
-4e-06
-2e-06
4e-05
4e-05
-2e-06
2e-07
4e-05
5e-05
1e-07
2e-06
5e-05
5e-05
2e-06
3e-06
4e-06
5e-05
6e-05
4e-06
5e-06
6e-05
6e-05
5e-06
6e-06
6e-05
6e-05
6e-06
6e-06
7e-05
7e-05
6e-06
6e-06
7e-05
7e-05
7e-06
7e-06
7e-05
8e-05
7e-06
7e-06
8e-05
8e-05
7e-06
7e-06
8e-05
8e-05
8e-06
7e-06
8e-05
8e-05
8e-06
7e-06
8e-05
8e-05
8e-06
7e-06
8e-05
8e-05
8e-05
8e-06
6e-06
8e-05
8e-05
8e-06
6e-06
8e-05
8e-05
8e-06
6e-06
8e-05
8e-05
8e-06
5e-06
8e-05
7e-05
7e-06
4e-06
7e-05
7e-05
7e-06
4e-06
7e-05
7e-05
7e-06
4e-06
6e-05
6e-05
6e-06
3e-06
6e-05
6e-05
6e-06
3e-06
6e-05
5e-05
6e-06
3e-06
5e-05
5e-05
6e-06
4e-06
5e-05
4e-05
6e-06
4e-06
4e-05
4e-05
6e-06
5e-06
4e-05
3e-05
6e-06
5e-06
3e-05
3e-05
7e-06
6e-06
7e-06
3e-05
3e-05
7e-06
7e-06
3e-05
3e-05
8e-06
8e-06
3e-05
2e-05
8e-06
9e-06
2e-05
2e-05
9e-06
1e-05
2e-05
2e-05
9e-06
1e-05
2e-05
2e-05
1e-05
1e-05
2e-05
2e-05
1e-05
1e-05
2e-05
2e-05
1e-05
1e-05
2e-05
2e-05
1e-05
1e-05
2e-05
2e-05
1e-05
1e-05
2e-05
2e-05
1e-05
1e-05
2e-05
2e-05
1e-05
1e-05
2e-05
2e-05
9e-06
1e-05
2e-05
2e-05
9e-06
1e-05
2e-05
2e-05
9e-06
1e-05
2e-05
2e-05
8e-06
1e-05
2e-05
2e-05
8e-06
1e-05
3e-05
3e-05
8e-06
9e-06
3e-05
3e-05
8e-06
9e-06
3e-05
3e-05
8e-06
9e-06
3e-05
3e-05
8e-06
9e-06
3e-05
3e-05
8e-06
9e-06
3e-05
3e-05
8e-06
9e-06
3e-05
3e-05
8e-06
9e-06
3e-05
3e-05
9e-06
9e-06
3e-05
3e-05
9e-06
9e-06
3e-05
3e-05
1e-05
1e-05
3e-05
3e-05
1e-05
1e-05
2e-05
2e-05
1e-05
1e-05
2e-05
2e-05
1e-05
1e-05
2e-05
1e-05
2e-05
2e-05
1e-05
2e-05
1e-05
SCALARS strain_1 float
LOOKUP_TABLE default
-0.000018
-0.000003
-0.000029
-0.000012
-0.000030
-0.000028
-0.000025
-0.000029
-0.000046
-0.000062
-0.000037
-0.000049
-0.000061
-0.000065
-0.000093
-0.000068
-0.000138
-0.000058
-0.000175
-0.000059
-0.000211
-0.000031
-0.000291
-0.000023
-0.000359
0.000033
-0.000469
0.000056
-0.000547
0.000110
-0.000671
0.000177
-0.000768
0.000237
-0.000915
0.000336
-0.001049
0.000434
-0.001205
0.000538
-0.001387
-0.001574
0.000664
-0.001767
0.000819
-0.001986
0.000960
-0.002207
0.001144
-0.002411
0.001323
-0.002671
0.001521
-0.002945
0.001770
-0.003215
0.001985
-0.003508
0.002243
-0.003789
0.002509
-0.004084
0.002797
0.003080
-0.004385
0.003428
-0.004694
0.003741
-0.005031
0.004096
-0.005379
0.004460
-0.005722
0.004823
-0.006064
0.005205
-0.006446
0.005610
-0.006772
0.006017
-0.007129
0.006437
-0.007508
0.006859
-0.007880
0.007289
-0.008240
0.007725
-0.008610
0.008171
-0.008970
0.008623
-0.009344
-0.009717
0.009058
-0.010063
0.009510
-0.010425
0.009952
-0.010775
0.010397
-0.011113
0.010845
-0.011447
0.011273
-0.011792
0.011690
-0.012108
0.012132
-0.012402
0.012559
-0.012710
0.012947
-0.013000
0.013338
0.013732
-0.013272
0.014089
-0.013536
0.014438
-0.013779
0.014771
-0.014005
0.015098
-0.014240
0.015392
-0.014419
0.015665
-0.014625
0.015940
-0.014784
0.016162
-0.014930
0.016378
-0.015073
0.016588
-0.015173
0.016743
-0.015263
0.016885
-0.015349
0.017003
-0.015415
0.017111
-0.015460
0.017192
-0.015467
-0.015482
0.017246
-0.015453
0.017275
-0.015424
0.017273
-0.015379
0.017242
-0.015303
0.017207
-0.015208
0.017141
-0.015109
0.017037
-0.014987
0.016936
-0.014857
0.016801
-0.014700
0.016633
0.016466
-0.014506
0.016263
-0.014317
0.016044
-0.014105
0.015815
-0.013914
0.015550
-0.013676
0.015284
-0.013439
0.014993
-0.013178
0.014687
-0.012913
0.014393
-0.012632
0.014059
-0.012343
0.013712
-0.012059
0.013377
-0.011733
0.013022
-0.011419
0.012656
-0.011115
0.012289
-0.010788
0.011902
-0.010462
-0.010134
0.011527
-0.009787
0.011138
-0.009447
0.010752
-0.009108
0.010359
-0.008764
0.009960
-0.008406
0.009583
-0.008101
0.009183
-0.007739
0.008807
-0.007423
0.008423
-0.007072
0.008045
-0.006745
0.007648
-0.006423
0.007287
-0.006110
0.006920
-0.005783
0.006547
-0.005463
0.006211
-0.005175
0.005878
-0.004866
0.005531
-0.004577
0.005196
-0.004284
0.004901
-0.004021
0.004575
-0.003755
0.004268
-0.003509
0.003984
-0.003254
0.003708
-0.003021
0.003440
-0.002788
0.003198
-0.002573
0.002935
-0.002366
0.002702
-0.002163
0.002483
-0.001967
0.002251
-0.001794
0.002066
-0.001617
0.001868
-0.001455
0.001698
-0.001305
0.001533
-0.001170
0.001359
-0.001030
0.001220
-0.000911
0.001077
-0.000813
0.000941
-0.000705
0.000827
-0.000607
0.000722
-0.000534
0.000633
-0.000451
0.000527
-0.000374
0.000437
-0.000308
0.000379
-0.000264
0.000321
-0.000213
0.000271
-0.000163
0.000210
-0.000120
0.000172
-0.000098
0.000124
-0.000060
0.000094
-0.000073
0.000074
-0.000037
0.000042
-0.000029
0.000023
-0.000013
0.000012
-0.000012
0.000006
-0.000003
-0.000020
-0.000013
-0.000015
-0.000005
-0.000021
0.000003
-0.000012
-0.000003
-0.000005
-0.000010
-0.000033
-0.000024
-0.000041
-0.000012
-0.000038
-0.000019
-0.000054
-0.000053
-0.000063
-0.000071
-0.000046
-0.000090
-0.000054
-0.000120
-0.000062
-0.000188
-0.000061
-0.000227
-0.000035
-0.000304
-0.000005
-0.000370
0.000027
-0.000450
0.000058
-0.000563
0.000106
-0.000674
0.000166
-0.000787
0.000235
-0.000920
0.000316
-0.001068
0.000427
-0.001236
0.000526
-0.001392
0.000657
-0.001581
0.000788
-0.001780
0.000962
-0.002000
0.001105
-0.002202
0.001300
-0.002443
0.001503
-0.002673
0.001726
-0.002940
0.001938
-0.003190
0.002193
-0.003472
0.002463
-0.003760
0.002734
-0.004036