# vtk DataFile Version 2.0
Generated volume Mesh
ASCII
DATASET UNSTRUCTURED_GRID
POINTS 1240 float
-0.212153 -0.150304 0.000000
-0.206421 -0.141033 0.000000
-0.215099 -0.146056 0.000000
-0.209122 -0.154492 0.000000
-0.217961 -0.141751 0.000000
-0.206009 -0.158620 0.000000
-0.220736 -0.137389 0.000000
-0.202815 -0.162684 0.000000
-0.223424 -0.132973 0.000000
-0.226023 -0.128505 0.000000
-0.199540 -0.166684 0.000000
-0.228534 -0.123985 0.000000
-0.196187 -0.170619 0.000000
-0.230953 -0.119417 0.000000
-0.192756 -0.174486 0.000000
-0.233282 -0.114802 0.000000
-0.189249 -0.178283 0.000000
-0.235519 -0.110141 0.000000
-0.185666 -0.182011 0.000000
-0.237662 -0.105436 0.000000
-0.182011 -0.185666 0.000000
-0.239711 -0.100690 0.000000
-0.178283 -0.189249 0.000000
-0.241666 -0.095904 0.000000
-0.174486 -0.192756 0.000000
-0.243525 -0.091081 0.000000
-0.170619 -0.196187 0.000000
-0.245288 -0.086221 0.000000
-0.166684 -0.199540 0.000000
-0.246953 -0.081327 0.000000
-0.162684 -0.202815 0.000000
-0.248521 -0.076401 0.000000
-0.158620 -0.206009 0.000000
-0.249991 -0.071445 0.000000
-0.154492 -0.209122 0.000000
-0.251363 -0.066459 0.000000
-0.150304 -0.212153 0.000000
-0.252634 -0.061448 0.000000
-0.146056 -0.215099 0.000000
-0.253806 -0.056412 0.000000
-0.141751 -0.217961 0.000000
-0.137389 -0.220736 0.000000
-0.254878 -0.051354 0.000000
-0.132973 -0.223424 0.000000
-0.255849 -0.046275 0.000000
-0.128505 -0.226023 0.000000
-0.256718 -0.041179 0.000000
-0.123985 -0.228534 0.000000
-0.257486 -0.036067 0.000000
-0.119417 -0.230953 0.000000
-0.258152 -0.030940 0.000000
-0.114802 -0.233282 0.000000
-0.258717 -0.025802 0.000000
-0.110141 -0.235519 0.000000
-0.259178 -0.020654 0.000000
-0.105436 -0.237662 0.000000
-0.259538 -0.015498 0.000000
-0.100690 -0.239711 0.000000
-0.259794 -0.010336 0.000000
-0.095904 -0.241666 0.000000
-0.259949 -0.005169 0.000000
-0.091081 -0.243525 0.000000
-0.260000 0.000000 0.000000
-0.259949 0.005169 0.000000
-0.086221 -0.245288 0.000000
-0.259794 0.010336 0.000000
-0.081327 -0.246953 0.000000
-0.259538 0.015498 0.000000
-0.076401 -0.248521 0.000000
-0.259178 0.020654 0.000000
-0.071445 -0.249991 0.000000
-0.258717 0.025802 0.000000
-0.066459 -0.251363 0.000000
-0.258152 0.030940 0.000000
-0.061448 -0.252634 0.000000
-0.257486 0.036067 0.000000
-0.056412 -0.253806 0.000000
-0.256718 0.041179 0.000000
-0.051354 -0.254878 0.000000
-0.255849 0.046275 0.000000
-0.046275 -0.255849 0.000000
-0.254878 0.051354 0.000000
-0.041179 -0.256718 0.000000
-0.253806 0.056412 0.000000
-0.036067 -0.257486 0.000000
-0.252634 0.061448 0.000000
-0.030940 -0.258152 0.000000
-0.251363 0.066459 0.000000
-0.025802 -0.258717 0.000000
-0.249991 0.071445 0.000000
-0.020654 -0.259178 0.000000
-0.248521 0.076401 0.000000
-0.015498 -0.259538 0.000000
-0.010336 -0.259794 0.000000
-0.246953 0.081327 0.000000
-0.005169 -0.259949 0.000000
-0.245288 0.086221 0.000000
0.000000 -0.260000 0.000000
-0.243525 0.091081 0.000000
0.005169 -0.259949 0.000000
-0.241666 0.095904 0.000000
0.010336 -0.259794 0.000000
-0.239711 0.100690 0.000000
0.015498 -0.259538 0.000000
-0.237662 0.105436 0.000000
0.020654 -0.259178 0.000000
-0.235519 0.110141 0.000000
0.025802 -0.258717 0.000000
-0.233282 0.114802 0.000000
0.030940 -0.258152 0.000000
-0.230953 0.119417 0.000000
0.036067 -0.257486 0.000000
-0.228534 0.123985 0.000000
0.041179 -0.256718 0.000000
-0.226023 0.128505 0.000000
-0.223424 0.132973 0.000000
0.046275 -0.255849 0.000000
-0.220736 0.137389 0.000000
0.051354 -0.254878 0.000000
-0.217961 0.141751 0.000000
0.056412 -0.253806 0.000000
-0.215099 0.146056 0.000000
0.061448 -0.252634 0.000000
-0.212153 0.150304 0.000000
0.066459 -0.251363 0.000000
-0.209122 0.154492 0.000000
0.071445 -0.249991 0.000000
-0.206009 0.158620 0.000000
0.076401 -0.248521 0.000000
-0.202815 0.162684 0.000000
0.081327 -0.246953 0.000000
-0.199540 0.166684 0.000000
0.086221 -0.245288 0.000000
-0.196187 0.170619 0.000000
0.091081 -0.243525 0.000000
-0.192756 0.174486 0.000000
0.095904 -0.241666 0.000000
-0.189249 0.178283 0.000000
0.100690 -0.239711 0.000000
-0.185666 0.182011 0.000000
0.105436 -0.237662 0.000000
-0.182011 0.185666 0.000000
0.110141 -0.235519 0.000000
-0.178283 0.189249 0.000000
0.114802 -0.233282 0.000000
-0.174486 0.192756 0.000000
0.119417 -0.230953 0.000000
0.123985 -0.228534 0.000000
-0.170619 0.196187 0.000000
0.128505 -0.226023 0.000000
-0.166684 0.199540 0.000000
0.132973 -0.223424 0.000000
-0.162684 0.202815 0.000000
0.137389 -0.220736 0.000000
-0.158620 0.206009 0.000000
0.141751 -0.217961 0.000000
-0.154492 0.209122 0.000000
0.146056 -0.215099 0.000000
-0.150304 0.212153 0.000000
0.150304 -0.212153 0.000000
-0.146056 0.215099 0.000000
0.154492 -0.209122 0.000000
-0.141751 0.217961 0.000000
0.158620 -0.206009 0.000000
-0.137389 0.220736 0.000000
0.162684 -0.202815 0.000000
-0.132973 0.223424 0.000000
-0.128505 0.226023 0.000000
0.166684 -0.199540 0.000000
-0.123985 0.228534 0.000000
0.170619 -0.196187 0.000000
-0.119417 0.230953 0.000000
0.174486 -0.192756 0.000000
-0.114802 0.233282 0.000000
0.178283 -0.189249 0.000000
-0.110141 0.235519 0.000000
0.182011 -0.185666 0.000000
-0.105436 0.237662 0.000000
0.185666 -0.182011 0.000000
-0.100690 0.239711 0.000000
0.189249 -0.178283 0.000000
-0.095904 0.241666 0.000000
0.192756 -0.174486 0.000000
-0.091081 0.243525 0.000000
0.196187 -0.170619 0.000000
-0.086221 0.245288 0.000000
0.199540 -0.166684 0.000000
-0.081327 0.246953 0.000000
0.202815 -0.162684 0.000000
-0.076401 0.248521 0.000000
0.206009 -0.158620 0.000000
-0.071445 0.249991 0.000000
0.209122 -0.154492 0.000000
-0.066459 0.251363 0.000000
0.212153 -0.150304 0.000000
-0.061448 0.252634 0.000000
0.215099 -0.146056 0.000000
-0.056412 0.253806 0.000000
0.217961 -0.141751 0.000000
0.220736 -0.137389 0.000000
-0.051354 0.254878 0.000000
0.223424 -0.132973 0.000000
-0.046275 0.255849 0.000000
0.226023 -0.128505 0.000000
-0.041179 0.256718 0.000000
0.228534 -0.123985 0.000000
-0.036067 0.257486 0.000000
0.230953 -0.119417 0.000000
-0.030940 0.258152 0.000000
0.233282 -0.114802 0.000000
-0.025802 0.258717 0.000000
0.235519 -0.110141 0.000000
-0.020654 0.259178 0.000000
0.237662 -0.105436 0.000000
-0.015498 0.259538 0.000000
0.239711 -0.100690 0.000000
-0.010336 0.259794 0.000000
0.241666 -0.095904 0.000000
-0.005169 0.259949 0.000000
0.243525 -0.091081 0.000000
0.000000 0.260000 0.000000
0.245288 -0.086221 0.000000
0.005169 0.259949 0.000000
0.246953 -0.081327 0.000000
0.010336 0.259794 0.000000
0.248521 -0.076401 0.000000
0.015498 0.259538 0.000000
0.249991 -0.071445 0.000000
0.020654 0.259178 0.000000
0.251363 -0.066459 0.000000
0.025802 0.258717 0.000000
0.252634 -0.061448 0.000000
0.030940 0.258152 0.000000
0.253806 -0.056412 0.000000
0.036067 0.257486 0.000000
0.254878 -0.051354 0.000000
0.041179 0.256718 0.000000
0.255849 -0.046275 0.000000
0.046275 0.255849 0.000000
0.256718 -0.041179 0.000000
0.051354 0.254878 0.000000
0.257486 -0.036067 0.000000
0.056412 0.253806 0.000000
0.258152 -0.030940 0.000000
0.061448 0.252634 0.000000
0.258717 -0.025802 0.000000
0.066459 0.251363 0.000000
0.259178 -0.020654 0.000000
0.071445 0.249991 0.000000
0.259538 -0.015498 0.000000
0.076401 0.248521 0.000000
0.259794 -0.010336 0.000000
0.081327 0.246953 0.000000
0.259949 -0.005169 0.000000
0.086221 0.245288 0.000000
0.260000 0.000000 0.000000
0.091081 0.243525 0.000000
0.259949 0.005169 0.000000
0.095904 0.241666 0.000000
0.259794 0.010336 0.000000
0.100690 0.239711 0.000000
0.259538 0.015498 0.000000
0.105436 0.237662 0.000000
0.259178 0.020654 0.000000
0.110141 0.235519 0.000000
0.258717 0.025802 0.000000
0.114802 0.233282 0.000000
0.258152 0.030940 0.000000
0.119417 0.230953 0.000000
0.257486 0.036067 0.000000
0.123985 0.228534 0.000000
0.256718 0.041179 0.000000
0.128505 0.226023 0.000000
0.255849 0.046275 0.000000
0.132973 0.223424 0.000000
0.254878 0.051354 0.000000
0.137389 0.220736 0.000000
0.253806 0.056412 0.000000
0.141751 0.217961 0.000000
0.252634 0.061448 0.000000
0.146056 0.215099 0.000000
0.251363 0.066459 0.000000
0.150304 0.212153 0.000000
0.249991 0.071445 0.000000
0.154492 0.209122 0.000000
0.248521 0.076401 0.000000
0.158620 0.206009 0.000000
0.246953 0.081327 0.000000
0.162684 0.202815 0.000000
0.245288 0.086221 0.000000
0.166684 0.199540 0.000000
0.243525 0.091081 0.000000
0.170619 0.196187 0.000000
0.241666 0.095904 0.000000
0.174486 0.192756 0.000000
0.239711 0.100690 0.000000
0.178283 0.189249 0.000000
0.237662 0.105436 0.000000
0.182011 0.185666 0.000000
0.235519 0.110141 0.000000
0.185666 0.182011 0.000000
0.233282 0.114802 0.000000
0.189249 0.178283 0.000000
0.230953 0.119417 0.000000
0.192756 0.174486 0.000000
0.228534 0.123985 0.000000
0.196187 0.170619 0.000000
0.226023 0.128505 0.000000
0.199540 0.166684 0.000000
0.223424 0.132973 0.000000
0.202815 0.162684 0.000000
0.220736 0.137389 0.000000
0.206009 0.158620 0.000000
0.217961 0.141751 0.000000
0.209122 0.154492 0.000000
0.215099 0.146056 0.000000
0.212153 0.150304 0.000000
-0.203462 -0.145269 0.000000
-0.209292 -0.136737 0.000000
-0.200416 -0.149443 0.000000
-0.212073 -0.132382 0.000000
-0.197285 -0.153553 0.000000
-0.214764 -0.127971 0.000000
-0.194070 -0.157598 0.000000
-0.217362 -0.123505 0.000000
-0.190771 -0.161575 0.000000
-0.219868 -0.118987 0.000000
-0.187391 -0.165483 0.000000
-0.222281 -0.114417 0.000000
-0.183931 -0.169320 0.000000
-0.224598 -0.109799 0.000000
-0.180392 -0.173086 0.000000
-0.226819 -0.105134 0.000000
-0.176777 -0.176777 0.000000
-0.228943 -0.100424 0.000000
-0.173086 -0.180392 0.000000
-0.230970 -0.095671 0.000000
-0.169320 -0.183931 0.000000
-0.232898 -0.090877 0.000000
-0.165483 -0.187391 0.000000
-0.234726 -0.086044 0.000000
-0.161575 -0.190771 0.000000
-0.236454 -0.081175 0.000000
-0.157598 -0.194070 0.000000
-0.238081 -0.076271 0.000000
-0.153553 -0.197285 0.000000
-0.239607 -0.071334 0.000000
-0.149443 -0.200416 0.000000
-0.241030 -0.066366 0.000000
-0.145269 -0.203462 0.000000
-0.242350 -0.061370 0.000000
-0.141033 -0.206421 0.000000
[...]
POINT_DATA 1240
SCALARS u1 float
LOOKUP_TABLE default
-4e-05
-3e-05
-3e-05
-4e-05
-3e-05
-4e-05
-3e-05
-5e-05
-3e-05
-3e-05
-5e-05
-3e-05
-5e-05
-3e-05
-5e-05
-3e-05
-5e-05
-3e-05
-5e-05
-4e-05
-5e-05
-4e-05
-5e-05
-4e-05
-4e-05
-4e-05
-4e-05
-5e-05
-4e-05
-5e-05
-3e-05
-6e-05
-3e-05
-6e-05
-3e-05
-7e-05
-2e-05
-7e-05
-2e-05
-8e-05
-2e-05
-2e-05
-9e-05
-1e-05
-0.0001
-1e-05
-0.0001
-1e-05
-0.0001
-1e-05
-0.0001
-1e-05
-0.0001
-1e-05
-0.0001
-1e-05
-0.0001
-1e-05
-0.0001
-1e-05
-0.0001
-1e-05
-0.0001
-0.0001
-1e-05
-0.0001
-2e-05
-0.0001
-2e-05
-0.0001
-2e-05
-0.0001
-2e-05
-0.0001
-2e-05
-0.0001
-2e-05
-0.0001
-2e-05
-0.0001
-2e-05
-9e-05
-2e-05
-8e-05
-2e-05
-8e-05
-2e-05
-7e-05
-2e-05
-6e-05
-2e-05
-6e-05
-2e-05
-1e-05
-5e-05
-1e-05
-5e-05
-1e-05
-5e-05
-8e-06
-4e-05
-6e-06
-4e-05
-5e-06
-4e-05
-3e-06
-4e-05
-2e-06
-4e-05
-4e-07
-4e-05
6e-07
-4e-05
1e-06
-3e-05
-4e-05
1e-06
-4e-05
1e-06
-4e-05
7e-07
-4e-05
-2e-07
-4e-05
-1e-06
-5e-05
-3e-06
-5e-05
-4e-06
-5e-05
-5e-06
-6e-05
-6e-06
-6e-05
-7e-06
-6e-05
-8e-06
-6e-05
-8e-06
-6e-05
-8e-06
-6e-05
-8e-06
-5e-05
-8e-06
-5e-05
-8e-06
-8e-06
-5e-05
-8e-06
-5e-05
-7e-06
-4e-05
-6e-06
-4e-05
-5e-06
-3e-05
-3e-06
-3e-05
-6e-07
-3e-05
2e-06
-3e-05
6e-06
-3e-05
9e-06
-2e-05
-2e-05
1e-05
-2e-05
2e-05
-2e-05
2e-05
-2e-05
2e-05
-2e-05
2e-05
-2e-05
3e-05
-2e-05
3e-05
-2e-05
3e-05
-3e-05
3e-05
-3e-05
2e-05
-3e-05
2e-05
-3e-05
2e-05
-3e-05
1e-05
-3e-05
1e-05
-3e-05
9e-06
-3e-05
6e-06
4e-06
-3e-05
3e-06
-3e-05
3e-06
-3e-05
3e-06
-3e-05
3e-06
-3e-05
5e-06
-3e-05
6e-06
-3e-05
8e-06
-3e-05
1e-05
-3e-05
1e-05
-2e-05
1e-05
-2e-05
2e-05
-2e-05
2e-05
-2e-05
3e-05
-2e-05
3e-05
-1e-05
4e-05
-1e-05
5e-05
-1e-05
5e-05
-1e-05
6e-05
-1e-05
7e-05
-1e-05
7e-05
-1e-05
8e-05
-1e-05
9e-05
-1e-05
9e-05
-1e-05
0.0001
-1e-05
0.0001
-2e-05
0.0001
-2e-05
0.0001
-2e-05
0.0001
-2e-05
0.0001
-2e-05
0.0001
-2e-05
0.0001
-2e-05
9e-05
-2e-05
9e-05
-2e-05
9e-05
-2e-05
8e-05
-2e-05
7e-05
-2e-05
6e-05
-2e-05
6e-05
-2e-05
5e-05
-1e-05
4e-05
-1e-05
4e-05
-1e-05
3e-05
-7e-06
2e-05
-4e-06
2e-05
3e-07
1e-05
4e-06
1e-05
8e-06
8e-06
1e-05
5e-06
1e-05
3e-06
2e-05
1e-06
2e-05
-5e-07
2e-05
-2e-06
2e-05
-3e-06
2e-05
-3e-06
2e-05
-3e-06
1e-05
-2e-06
1e-05
-1e-07
8e-06
2e-06
5e-06
-3e-05
-3e-05
-4e-05
-3e-05
-4e-05
-3e-05
-4e-05
-3e-05
-5e-05
-3e-05
-5e-05
-3e-05
-5e-05
-3e-05
-5e-05
-4e-05
-5e-05
-4e-05
-5e-05
-4e-05
-5e-05
-4e-05
-5e-05
-5e-05
-4e-05
-5e-05
-4e-05
-6e-05
-4e-05
-6e-05
-3e-05
-7e-05
-3e-05
-8e-05
-3e-05
-8e-05
-2e-05
-9e-05
-2e-05
-0.0001
-2e-05
-0.0001
-2e-05
-0.0001
-1e-05
-0.0001
-1e-05
-0.0001
-1e-05
-0.0001
-1e-05
-0.0001
-1e-05
-0.0001
-1e-05
-0.0001
-9e-06
-0.0001
-9e-06
-0.0001
-8e-06
-0.0001
-8e-06
-0.0001
-8e-06
-0.0001
-8e-06
-0.0001
-8e-06
-0.0001
-8e-06
-0.0001
-9e-06
-0.0001
-9e-06
-0.0001
-1e-05
-9e-05
-1e-05
-9e-05
-1e-05
-8e-05
-1e-05
-7e-05
-1e-05
-7e-05
-1e-05
-6e-05
-1e-05
-5e-05
-1e-05
-5e-05
-1e-05
-5e-05
-1e-05
-4e-05
-1e-05
-4e-05
-1e-05
-4e-05
-1e-05
-4e-05
-1e-05
-4e-05
-1e-05
-4e-05
-1e-05
-4e-05
-1e-05
-3e-05
-1e-05
-4e-05
-1e-05
-4e-05
-1e-05
-4e-05
-1e-05
-4e-05
-1e-05
-4e-05
-1e-05
-5e-05
-1e-05
-5e-05
-1e-05
-5e-05
-1e-05
-5e-05
-1e-05
-6e-05
-1e-05
-6e-05
-1e-05
-6e-05
-1e-05
-6e-05
-1e-05
-6e-05
-9e-06
-5e-05
-8e-06
-5e-05
-7e-06
-5e-05
-5e-06
-5e-05
-3e-06
-4e-05
-2e-07
-4e-05
3e-06
-4e-05
6e-06
-3e-05
1e-05
-3e-05
1e-05
-3e-05
2e-05
-3e-05
2e-05
-2e-05
2e-05
-2e-05
2e-05
-2e-05
3e-05
-2e-05
3e-05
-2e-05
3e-05
-2e-05
2e-05
-2e-05
2e-05
-2e-05
2e-05
-2e-05
2e-05
-2e-05
1e-05
-2e-05
1e-05
-2e-05
8e-06
-2e-05
6e-06
-2e-05
4e-06
-2e-05
3e-06
-2e-05
3e-06
-2e-05
3e-06
-2e-05
4e-06
-2e-05
5e-06
-2e-05
7e-06
-2e-05
8e-06
-2e-05
1e-05
-2e-05
1e-05
-2e-05
2e-05
-2e-05
2e-05
-2e-05
2e-05
-2e-05
3e-05
-2e-05
3e-05
-2e-05
4e-05
-2e-05
5e-05
-2e-05
5e-05
-2e-05
6e-05
-2e-05
7e-05
-2e-05
7e-05
-2e-05
8e-05
-2e-05
9e-05
-2e-05
9e-05
-2e-05
0.0001
-2e-05
0.0001
-2e-05
0.0001
-2e-05
0.0001
-2e-05
0.0001
-2e-05
0.0001
-2e-05
0.0001
-2e-05
0.0001
-2e-05
0.0001
-2e-05
9e-05
-2e-05
9e-05
-2e-05
8e-05
-2e-05
7e-05
-1e-05
7e-05
-1e-05
6e-05
-1e-05
5e-05
-6e-06
4e-05
-3e-06
4e-05
1e-06
3e-05
5e-06
2e-05
9e-06
2e-05
1e-05
1e-05
1e-05
1e-05
2e-05
8e-06
2e-05
6e-06
2e-05
4e-06
2e-05
2e-06
2e-05
-1e-07
2e-05
-2e-06
1e-05
-3e-06
1e-05
-3e-06
7e-06
-3e-06
4e-06
-2e-06
-4e-07
2e-06
-3e-05
-3e-05
-4e-05
-3e-05
-3e-05
-4e-05
-4e-05
-3e-05
-3e-05
-4e-05
-4e-05
-3e-05
-3e-05
-4e-05
-5e-05
-3e-05
-3e-05
-3e-05
-5e-05
-5e-05
-3e-05
-3e-05
-5e-05
-5e-05
-3e-05
-3e-05
-5e-05
-5e-05
-3e-05
-3e-05
-5e-05
-5e-05
-3e-05
-3e-05
-5e-05
-5e-05
-4e-05
-4e-05
-5e-05
-5e-05
-4e-05
-4e-05
-5e-05
-5e-05
-4e-05
-4e-05
-5e-05
-4e-05
-4e-05
-5e-05
-4e-05
-4e-05
-5e-05
-5e-05
-4e-05
-4e-05
-5e-05
-5e-05
-4e-05
-3e-05
-6e-05
-6e-05
-3e-05
-3e-05
-6e-05
-7e-05
-3e-05
-3e-05
-7e-05
-7e-05
-3e-05
-2e-05
-8e-05
-8e-05
-2e-05
-2e-05
-9e-05
-9e-05
-2e-05
-2e-05
-2e-05
-9e-05
-0.0001
-2e-05
-2e-05
-0.0001
-0.0001
-2e-05
-1e-05
-0.0001
-0.0001
-1e-05
-1e-05
-0.0001
-0.0001
-1e-05
-1e-05
-0.0001
-0.0001
-1e-05
-1e-05
-0.0001
-0.0001
-1e-05
-1e-05
-0.0001
-0.0001
-1e-05
-1e-05
-0.0001
-0.0001
-1e-05
-1e-05
-0.0001
-0.0001
-1e-05
-1e-05
-0.0001
-0.0001
-1e-05
-1e-05
-0.0001
-0.0001
-0.0001
-1e-05
-1e-05
-0.0001
-0.0001
-1e-05
-1e-05
-0.0001
-0.0001
-1e-05
-1e-05
-0.0001
-0.0001
-1e-05
-2e-05
-0.0001
-0.0001
-1e-05
-2e-05
-0.0001
-0.0001
-1e-05
-2e-05
-0.0001
-0.0001
-1e-05
-2e-05
-0.0001
-0.0001
-1e-05
-2e-05
-0.0001
-0.0001
-1e-05
-2e-05
-0.0001
-9e-05
-1e-05
-2e-05
-9e-05
-8e-05
-1e-05
-2e-05
-8e-05
-8e-05
-1e-05
-2e-05
-7e-05
-7e-05
-1e-05
-2e-05
-7e-05
-6e-05
-1e-05
-1e-05
-6e-05
-6e-05
-1e-05
-1e-05
-1e-05
-6e-05
-5e-05
-1e-05
-1e-05
-5e-05
-5e-05
-1e-05
-1e-05
-5e-05
-5e-05
-1e-05
-9e-06
-5e-05
-4e-05
-9e-06
-7e-06
-4e-05
-4e-05
-9e-06
-6e-06
-4e-05
-4e-05
-8e-06
-5e-06
-4e-05
-4e-05
-8e-06
-4e-06
-4e-05
-4e-05
-7e-06
-4e-06
-4e-05
-4e-05
-7e-06
-3e-06
-4e-05
-3e-05
-7e-06
-3e-06
-3e-05
-4e-05
-4e-05
-7e-06
-3e-06
-4e-05
-4e-05
-8e-06
-4e-06
-4e-05
-4e-05
-8e-06
-4e-06
-4e-05
-4e-05
-9e-06
-5e-06
-4e-05
-4e-05
-1e-05
-6e-06
-4e-05
-5e-05
-1e-05
-7e-06
-5e-05
-5e-05
-1e-05
-8e-06
-5e-05
-5e-05
-1e-05
-8e-06
-5e-05
-6e-05
-1e-05
-9e-06
-6e-05
-6e-05
-1e-05
-9e-06
-6e-05
-6e-05
-1e-05
-9e-06
-6e-05
-6e-05
-1e-05
-9e-06
-6e-05
-6e-05
-1e-05
-9e-06
-6e-05
-6e-05
-1e-05
-9e-06
-6e-05
-5e-05
-9e-06
-9e-06
-5e-05
-5e-05
-9e-06
-8e-06
-8e-06
-5e-05
-5e-05
-8e-06
-7e-06
-5e-05
-5e-05
-7e-06
-6e-06
-5e-05
-4e-05
-5e-06
-5e-06
-4e-05
-4e-05
-3e-06
-3e-06
-4e-05
-3e-05
-1e-07
-3e-07
-4e-05
-3e-05
3e-06
3e-06
-3e-05
-3e-05
6e-06
6e-06
-3e-05
-3e-05
1e-05
1e-05
-3e-05
-3e-05
1e-05
1e-05
-3e-05
-2e-05
-2e-05
2e-05
2e-05
-2e-05
-2e-05
2e-05
2e-05
-2e-05
-2e-05
2e-05
2e-05
-2e-05
-2e-05
2e-05
2e-05
-2e-05
-2e-05
3e-05
3e-05
-2e-05
-2e-05
3e-05
3e-05
-2e-05
-2e-05
3e-05
3e-05
-2e-05
-2e-05
2e-05
2e-05
-2e-05
-2e-05
2e-05
2e-05
-2e-05
-2e-05
2e-05
2e-05
-2e-05
-2e-05
2e-05
2e-05
-2e-05
-3e-05
1e-05
1e-05
-2e-05
-3e-05
1e-05
1e-05
-2e-05
-3e-05
8e-06
8e-06
-2e-05
-3e-05
6e-06
6e-06
-2e-05
-3e-05
4e-06
4e-06
3e-06
-2e-05
-3e-05
3e-06
3e-06
-2e-05
-3e-05
3e-06
3e-06
-3e-05
-3e-05
3e-06
3e-06
-3e-05
-3e-05
4e-06
4e-06
-3e-05
-3e-05
5e-06
6e-06
-2e-05
-3e-05
7e-06
7e-06
-2e-05
-3e-05
9e-06
9e-06
-2e-05
-2e-05
1e-05
1e-05
-2e-05
-2e-05
1e-05
1e-05
-2e-05
-2e-05
2e-05
2e-05
-2e-05
-2e-05
-2e-05
2e-05
2e-05
-2e-05
-2e-05
2e-05
3e-05
-2e-05
-2e-05
3e-05
3e-05
-2e-05
-2e-05
3e-05
4e-05
-2e-05
-2e-05
4e-05
4e-05
-2e-05
-2e-05
5e-05
5e-05
-2e-05
-1e-05
6e-05
6e-05
-2e-05
-1e-05
6e-05
6e-05
-2e-05
-1e-05
7e-05
7e-05
-2e-05
-1e-05
8e-05
8e-05
-2e-05
-2e-05
8e-05
9e-05
-2e-05
-2e-05
9e-05
9e-05
-2e-05
-2e-05
9e-05
9e-05
-2e-05
-2e-05
0.0001
0.0001
-2e-05
-2e-05
0.0001
0.0001
0.0001
-2e-05
-2e-05
0.0001
0.0001
-2e-05
-2e-05
0.0001
0.0001
-2e-05
-2e-05
0.0001
0.0001
-2e-05
-2e-05
0.0001
0.0001
-2e-05
-2e-05
0.0001
0.0001
-2e-05
-2e-05
0.0001
9e-05
-2e-05
-2e-05
9e-05
9e-05
-2e-05
-2e-05
9e-05
8e-05
-2e-05
-2e-05
8e-05
8e-05
-2e-05
-2e-05
8e-05
7e-05
-2e-05
-2e-05
7e-05
6e-05
-2e-05
-2e-05
6e-05
6e-05
-1e-05
-1e-05
5e-05
5e-05
-1e-05
-1e-05
5e-05
4e-05
-6e-06
-1e-05
4e-05
3e-05
-3e-06
-7e-06
3e-05
3e-05
8e-07
-3e-06
3e-05
2e-05
5e-06
5e-07
2e-05
2e-05
8e-06
4e-06
2e-05
1e-05
1e-05
8e-06
1e-05
1e-05
1e-05
1e-05
9e-06
7e-06
2e-05
1e-05
6e-06
4e-06
2e-05
2e-05
4e-06
2e-06
2e-05
2e-05
2e-06
6e-07
2e-05
2e-05
2e-07
-1e-06
2e-05
2e-05
-1e-06
-2e-06
2e-05
2e-05
-3e-06
-3e-06
1e-05
2e-05
-3e-06
-3e-06
1e-05
1e-05
-3e-06
-3e-06
7e-06
1e-05
-2e-06
-2e-06
5e-06
-3e-07
2e-06
8e-06
-2e-07
5e-06
2e-06
SCALARS u2 float
LOOKUP_TABLE default
-9e-06
-1e-05
-6e-06
-1e-05
-4e-06
-2e-05
-3e-06
-2e-05
-2e-06
-1e-06
-2e-05
-1e-06
-3e-05
-1e-06
-3e-05
-1e-06
-3e-05
-9e-07
-3e-05
-1e-06
-4e-05
-1e-06
-4e-05
-2e-06
-4e-05
-2e-06
-3e-05
-3e-06
-3e-05
-4e-06
-3e-05
-5e-06
-3e-05
-7e-06
-2e-05
-8e-06
-2e-05
-9e-06
-2e-05
-1e-05
-2e-05
-1e-05
-1e-05
-1e-05
-1e-05
-1e-05
-1e-05
-1e-05
-1e-05
-1e-05
-9e-06
-1e-05
-8e-06
-2e-05
-6e-06
-2e-05
-5e-06
-2e-05
-3e-06
-2e-05
-1e-06
-2e-05
9e-07
3e-06
-3e-05
5e-06
-3e-05
7e-06
-4e-05
8e-06
-4e-05
1e-05
-5e-05
1e-05
-5e-05
1e-05
-6e-05
1e-05
-7e-05
1e-05
-8e-05
1e-05
-8e-05
1e-05
-9e-05
1e-05
-0.0001
1e-05
-0.0001
9e-06
-0.0001
8e-06
-0.0001
-0.0001
7e-06
-0.0001
6e-06
-0.0001
5e-06
-0.0001
4e-06
-0.0001
4e-06
-0.0001
4e-06
-0.0001
4e-06
-0.0001
4e-06
-9e-05
4e-06
-9e-05
4e-06
-8e-05
5e-06
5e-06
-7e-05
7e-06
-7e-05
8e-06
-6e-05
1e-05
-5e-05
1e-05
-4e-05
2e-05
-4e-05
2e-05
-3e-05
2e-05
-3e-05
3e-05
-2e-05
3e-05
-2e-05
3e-05
-2e-05
4e-05
-1e-05
4e-05
-1e-05
4e-05
-1e-05
4e-05
-9e-06
4e-05
-8e-06
-7e-06
4e-05
-6e-06
4e-05
-7e-06
4e-05
-8e-06
3e-05
-9e-06
3e-05
-1e-05
3e-05
-1e-05
2e-05
-2e-05
2e-05
-2e-05
2e-05
-2e-05
2e-05
2e-05
-3e-05
2e-05
-3e-05
2e-05
-3e-05
2e-05
-3e-05
2e-05
-3e-05
3e-05
-3e-05
3e-05
-2e-05
3e-05
-2e-05
3e-05
-2e-05
4e-05
-1e-05
4e-05
-1e-05
5e-05
-6e-06
5e-05
-2e-06
6e-05
7e-07
7e-05
3e-06
7e-05
5e-06
7e-06
8e-05
8e-06
9e-05
9e-06
0.0001
9e-06
0.0001
9e-06
0.0001
9e-06
0.0001
1e-05
0.0001
1e-05
0.0001
9e-06
0.0001
9e-06
0.0001
9e-06
0.0001
8e-06
0.0001
7e-06
0.0001
6e-06
0.0001
4e-06
0.0001
3e-06
0.0001
2e-06
0.0001
1e-06
0.0001
7e-07
0.0001
6e-07
9e-05
9e-07
8e-05
2e-06
8e-05
3e-06
7e-05
4e-06
6e-05
5e-06
5e-05
7e-06
5e-05
9e-06
4e-05
1e-05
4e-05
1e-05
4e-05
1e-05
3e-05
2e-05
3e-05
2e-05
3e-05
2e-05
3e-05
2e-05
3e-05
2e-05
3e-05
2e-05
3e-05
2e-05
3e-05
2e-05
3e-05
2e-05
3e-05
2e-05
3e-05
2e-05
3e-05
2e-05
3e-05
2e-05
4e-05
2e-05
4e-05
2e-05
4e-05
2e-05
5e-05
2e-05
5e-05
2e-05
5e-05
1e-05
5e-05
1e-05
5e-05
1e-05
5e-05
1e-05
5e-05
1e-05
4e-05
1e-05
4e-05
1e-05
4e-05
2e-05
3e-05
2e-05
3e-05
2e-05
3e-05
2e-05
2e-05
-2e-05
-9e-06
-2e-05
-6e-06
-2e-05
-4e-06
-3e-05
-2e-06
-3e-05
-9e-07
-3e-05
1e-07
-3e-05
8e-07
-4e-05
2e-06
-4e-05
2e-06
-4e-05
3e-06
-3e-05
3e-06
-3e-05
4e-06
-3e-05
4e-06
-3e-05
4e-06
-2e-05
4e-06
-2e-05
4e-06
-2e-05
4e-06
-2e-05
4e-06
-1e-05
3e-06
-1e-05
3e-06
-1e-05
2e-06
-1e-05
2e-06
-1e-05
1e-06
-1e-05
1e-06
-2e-05
9e-07
-2e-05
9e-07
-2e-05
1e-06
-2e-05
1e-06
-2e-05
1e-06
-3e-05
1e-06
-3e-05
1e-06
-4e-05
1e-06
-4e-05
1e-06
-5e-05
1e-06
-6e-05
1e-06
-6e-05
6e-07
-7e-05
2e-07
-8e-05
-3e-07
-8e-05
-8e-07
-9e-05
-1e-06
-0.0001
-2e-06
-0.0001
-2e-06
-0.0001
-2e-06
-0.0001
-1e-06
-0.0001
-1e-06
-0.0001
-7e-07
-0.0001
-1e-07
-0.0001
4e-07
-0.0001
1e-06
-0.0001
2e-06
-0.0001
3e-06
-0.0001
3e-06
-0.0001
4e-06
-9e-05
6e-06
-8e-05
8e-06
-8e-05
1e-05
-7e-05
1e-05
-6e-05
2e-05
-5e-05
2e-05
-5e-05
2e-05
-4e-05
3e-05
-3e-05
3e-05
-3e-05
3e-05
-2e-05
4e-05
-2e-05
4e-05
-2e-05
4e-05
-2e-05
4e-05
-1e-05
4e-05
-1e-05
4e-05
-9e-06
4e-05
-8e-06
4e-05
-7e-06
3e-05
-6e-06
3e-05
-7e-06
3e-05
-8e-06
2e-05
-9e-06
2e-05
-1e-05
2e-05
-1e-05
2e-05
-2e-05
2e-05
-2e-05
2e-05
-2e-05
2e-05
-2e-05
2e-05
-3e-05
2e-05
-3e-05
3e-05
-3e-05
3e-05
-3e-05
3e-05
-3e-05
3e-05
-2e-05
4e-05
-2e-05
4e-05
-2e-05
5e-05
-1e-05
5e-05
-1e-05
6e-05
-7e-06
7e-05
-3e-06
7e-05
1e-07
8e-05
3e-06
9e-05
5e-06
0.0001
7e-06
0.0001
9e-06
0.0001
1e-05
0.0001
1e-05
0.0001
1e-05
0.0001
1e-05
0.0001
1e-05
0.0001
1e-05
0.0001
1e-05
0.0001
1e-05
0.0001
1e-05
0.0001
2e-05
0.0001
2e-05
0.0001
1e-05
0.0001
1e-05
0.0001
1e-05
0.0001
1e-05
9e-05
1e-05
8e-05
1e-05
8e-05
1e-05
7e-05
1e-05
6e-05
1e-05
6e-05
1e-05
5e-05
1e-05
5e-05
1e-05
4e-05
1e-05
4e-05
1e-05
4e-05
1e-05
3e-05
1e-05
3e-05
1e-05
3e-05
1e-05
3e-05
1e-05
3e-05
1e-05
3e-05
1e-05
3e-05
1e-05
3e-05
1e-05
3e-05
1e-05
3e-05
9e-06
3e-05
9e-06
3e-05
9e-06
4e-05
9e-06
4e-05
9e-06
4e-05
1e-05
5e-05
1e-05
5e-05
1e-05
5e-05
1e-05
5e-05
1e-05
5e-05
1e-05
5e-05
1e-05
5e-05
1e-05
4e-05
2e-05
4e-05
2e-05
4e-05
2e-05
3e-05
2e-05
3e-05
3e-05
-9e-06
-1e-05
-1e-05
-9e-06
-7e-06
-2e-05
-2e-05
-7e-06
-5e-06
-2e-05
-2e-05
-4e-06
-3e-06
-2e-05
-2e-05
-3e-06
-2e-06
-1e-06
-3e-05
-3e-05
-1e-06
-9e-07
-3e-05
-3e-05
-5e-07
-5e-07
-3e-05
-3e-05
7e-08
-2e-07
-3e-05
-3e-05
6e-07
-2e-08
-4e-05
-4e-05
1e-06
7e-08
-4e-05
-4e-05
1e-06
3e-08
-4e-05
-4e-05
2e-06
-1e-07
-3e-05
-3e-05
2e-06
-4e-07
-3e-05
-3e-05
2e-06
-1e-06
-3e-05
-3e-05
1e-06
-2e-06
-3e-05
-3e-05
1e-06
-2e-06
-2e-05
-2e-05
7e-07
-3e-06
-2e-05
-2e-05
2e-07
-4e-06
-2e-05
-2e-05
-4e-07
-5e-06
-2e-05
-2e-05
-1e-06
-6e-06
-1e-05
-1e-05
-1e-05
-1e-06
-6e-06
-1e-05
-1e-05
-2e-06
-6e-06
-1e-05
-1e-05
-2e-06
-6e-06
-1e-05
-1e-05
-2e-06
-6e-06
-1e-05
-1e-05
-2e-06
-5e-06
-1e-05
-2e-05
-2e-06
-4e-06
-2e-05
-2e-05
-1e-06
-3e-06
-2e-05
-2e-05
-8e-07
-2e-06
-2e-05
-2e-05
-1e-07
-8e-07
-2e-05
-2e-05
6e-07
6e-07
-3e-05
-3e-05
2e-06
1e-06
3e-06
-3e-05
-3e-05
2e-06
4e-06
-3e-05
-3e-05
3e-06
5e-06
-4e-05
-4e-05
4e-06
6e-06
-4e-05
-5e-05
4e-06
7e-06
-5e-05
-5e-05
4e-06
8e-06
-6e-05
-6e-05
5e-06
8e-06
-6e-05
-7e-05
4e-06
8e-06
-7e-05
-7e-05
4e-06
8e-06
-8e-05
-8e-05
4e-06
8e-06
-9e-05
-9e-05
3e-06
7e-06
-9e-05
-9e-05
3e-06
7e-06
-0.0001
-0.0001
2e-06
6e-06
-0.0001
-0.0001
2e-06
5e-06
-0.0001
-0.0001
1e-06
4e-06
-0.0001
-0.0001
-0.0001
1e-06
4e-06
-0.0001
-0.0001
1e-06
3e-06
-0.0001
-0.0001
1e-06
3e-06
-0.0001
-0.0001
1e-06
3e-06
-0.0001
-0.0001
2e-06
3e-06
-0.0001
-0.0001
2e-06
3e-06
-0.0001
-0.0001
3e-06
3e-06
-0.0001
-0.0001
3e-06
4e-06
-0.0001
-9e-05
4e-06
4e-06
-9e-05
-9e-05
5e-06
5e-06
-8e-05
-8e-05
6e-06
6e-06
7e-06
-8e-05
-7e-05
8e-06
8e-06
-7e-05
-6e-05
1e-05
1e-05
-6e-05
-6e-05
1e-05
1e-05
-5e-05
-5e-05
2e-05
2e-05
-5e-05
-4e-05
2e-05
2e-05
-4e-05
-4e-05
2e-05
2e-05
-3e-05
-3e-05
3e-05
3e-05
-3e-05
-3e-05
3e-05
3e-05
-3e-05
-2e-05
3e-05
3e-05
-2e-05
-2e-05
4e-05
4e-05
-2e-05
-2e-05
4e-05
4e-05
-2e-05
-1e-05
4e-05
4e-05
-1e-05
-1e-05
4e-05
4e-05
-1e-05
-1e-05
4e-05
4e-05
-1e-05
-8e-06
4e-05
4e-05
-8e-06
-7e-06
-7e-06
4e-05
4e-05
-7e-06
-6e-06
4e-05
4e-05
-6e-06
-7e-06
3e-05
3e-05
-7e-06
-8e-06
3e-05
3e-05
-8e-06
-9e-06
3e-05
3e-05
-9e-06
-1e-05
2e-05
2e-05
-1e-05
-1e-05
2e-05
2e-05
-1e-05
-2e-05
2e-05
2e-05
-2e-05
-2e-05
2e-05
2e-05
-2e-05
-2e-05
2e-05
2e-05
2e-05
-2e-05
-3e-05
2e-05
2e-05
-2e-05
-3e-05
2e-05
2e-05
-3e-05
-3e-05
2e-05
2e-05
-3e-05
-3e-05
2e-05
3e-05
-3e-05
-3e-05
3e-05
3e-05
-3e-05
-3e-05
3e-05
3e-05
-3e-05
-2e-05
3e-05
3e-05
-2e-05
-2e-05
3e-05
4e-05
-2e-05
-2e-05
4e-05
4e-05
-2e-05
-1e-05
4e-05
4e-05
-1e-05
-1e-05
5e-05
5e-05
-1e-05
-6e-06
5e-05
6e-05
-6e-06
-3e-06
6e-05
6e-05
-3e-06
3e-07
7e-05
7e-05
2e-07
3e-06
8e-05
8e-05
3e-06
5e-06
7e-06
8e-05
9e-05
6e-06
8e-06
9e-05
9e-05
7e-06
9e-06
0.0001
0.0001
9e-06
9e-06
0.0001
0.0001
1e-05
1e-05
0.0001
0.0001
1e-05
1e-05
0.0001
0.0001
1e-05
1e-05
0.0001
0.0001
1e-05
1e-05
0.0001
0.0001
1e-05
1e-05
0.0001
0.0001
1e-05
1e-05
0.0001
0.0001
1e-05
1e-05
0.0001
0.0001
0.0001
1e-05
1e-05
0.0001
0.0001
1e-05
9e-06
0.0001
0.0001
1e-05
8e-06
0.0001
0.0001
1e-05
8e-06
0.0001
0.0001
1e-05
7e-06
0.0001
0.0001
1e-05
6e-06
0.0001
0.0001
1e-05
5e-06
0.0001
9e-05
1e-05
5e-06
9e-05
9e-05
9e-06
5e-06
9e-05
8e-05
9e-06
5e-06
8e-05
7e-05
9e-06
6e-06
7e-05
7e-05
9e-06
6e-06
6e-05
6e-05
9e-06
7e-06
6e-05
5e-05
1e-05
8e-06
5e-05
5e-05
1e-05
9e-06
1e-05
5e-05
4e-05
1e-05
1e-05
4e-05
4e-05
1e-05
1e-05
4e-05
4e-05
1e-05
1e-05
4e-05
3e-05
1e-05
2e-05
3e-05
3e-05
1e-05
2e-05
3e-05
3e-05
1e-05
2e-05
3e-05
3e-05
2e-05
2e-05
3e-05
3e-05
2e-05
2e-05
3e-05
3e-05
2e-05
2e-05
3e-05
3e-05
2e-05
2e-05
3e-05
3e-05
2e-05
2e-05
3e-05
3e-05
1e-05
2e-05
3e-05
3e-05
1e-05
2e-05
3e-05
3e-05
1e-05
2e-05
3e-05
3e-05
1e-05
2e-05
3e-05
3e-05
1e-05
2e-05
4e-05
4e-05
1e-05
2e-05
4e-05
4e-05
1e-05
1e-05
4e-05
4e-05
1e-05
1e-05
5e-05
5e-05
1e-05
1e-05
5e-05
5e-05
1e-05
1e-05
5e-05
5e-05
1e-05
1e-05
5e-05
5e-05
1e-05
1e-05
5e-05
5e-05
1e-05
1e-05
5e-05
5e-05
1e-05
1e-05
5e-05
5e-05
1e-05
1e-05
4e-05
4e-05
1e-05
1e-05
4e-05
4e-05
2e-05
2e-05
4e-05
4e-05
2e-05
2e-05
3e-05
3e-05
2e-05
2e-05
3e-05
2e-05
3e-05
3e-05
2e-05
3e-05
2e-05
SCALARS strain_1 float
LOOKUP_TABLE default
0.000004
-0.000032
-0.000057
-0.000043
-0.000072
-0.000043
-0.000062
-0.000042
-0.000079
-0.000099
-0.000078
-0.000104
-0.000100
-0.000115
-0.000132
-0.000101
-0.000209
-0.000102
-0.000267
-0.000109
-0.000357
-0.000062
-0.000438
-0.000018
-0.000580
0.000019
-0.000698
0.000088
-0.000847
0.000166
-0.001027
0.000259
-0.001191
0.000403
-0.001406
0.000505
-0.001643
0.000643
-0.001885
0.000830
-0.002118
-0.002418
0.001046
-0.002723
0.001269
-0.003060
0.001472
-0.003383
0.001758
-0.003776
0.002052
-0.004132
0.002364
-0.004544
0.002663
-0.004963
0.003080
-0.005377
0.003448
-0.005825
0.003873
-0.006287
0.004287
0.004791
-0.006777
0.005260
-0.007270
0.005772
-0.007756
0.006277
-0.008292
0.006869
-0.008800
0.007409
-0.009339
0.008020
-0.009863
0.008635
-0.010464
0.009253
-0.011005
0.009912
-0.011579
0.010555
-0.012153
0.011230
-0.012694
0.011867
-0.013264
0.012545
-0.013843
0.013270
-0.014399
-0.014947
0.013938
-0.015498
0.014652
-0.016066
0.015335
-0.016603
0.016014
-0.017127
0.016709
-0.017638
0.017342
-0.018160
0.018032
-0.018620
0.018678
-0.019130
0.019322
-0.019553
0.019939
-0.019978
0.020537
0.021144
-0.020441
0.021707
-0.020844
0.022241
-0.021204
0.022747
-0.021574
0.023239
-0.021912
0.023692
-0.022223
0.024120
-0.022506
0.024529
-0.022764
0.024886
-0.023007
0.025239
-0.023194
0.025524
-0.023376
0.025766
-0.023519
0.026019
-0.023653
0.026200
-0.023753
0.026372
-0.023797
0.026473
-0.023861
-0.023851
0.026559
-0.023832
0.026592
-0.023764
0.026606
-0.023685
0.026544
-0.023576
0.026485
-0.023438
0.026388
-0.023291
0.026228
-0.023091
0.026065
-0.022885
0.025835
-0.022613
0.025624
0.025347
-0.022367
0.025043
-0.022055
0.024695
-0.021777
0.024342
-0.021421
0.023949
-0.021068
0.023548
-0.020687
0.023092
-0.020304
0.022625
-0.019901
0.022143
-0.019439
0.021655
-0.019051
0.021126
-0.018569
0.020603
-0.018089
0.020032
-0.017607
0.019489
-0.017127
0.018918
-0.016610
0.018338
-0.016106
-0.015606
0.017757
-0.015062
0.017159
-0.014560
0.016570
-0.014029
0.015946
-0.013493
0.015359
-0.012981
0.014756
-0.012473
0.014146
-0.011934
0.013550
-0.011392
0.012952
-0.010900
0.012355
-0.010379
0.011820
-0.009891
0.011218
-0.009384
0.010652
-0.008907
0.010120
-0.008424
0.009566
-0.007945
0.009041
-0.007491
0.008523
-0.007046
0.008018
-0.006623
0.007532
-0.006209
0.007031
-0.005797
0.006579
-0.005405
0.006151
-0.005008
0.005725
-0.004641
0.005286
-0.004289
0.004877
-0.003946
0.004556
-0.003643
0.004169
-0.003346
0.003812
-0.003028
0.003510
-0.002736
0.003188
-0.002504
0.002885
-0.002248
0.002620
-0.002002
0.002354
-0.001814
0.002097
-0.001599
0.001852
-0.001417
0.001674
-0.001247
0.001473
-0.001081
0.001290
-0.000937
0.001103
-0.000798
0.000948
-0.000689
0.000800
-0.000567
0.000674
-0.000491
0.000593
-0.000394
0.000478
-0.000338
0.000409
-0.000245
0.000320
-0.000214
0.000225
-0.000165
0.000204
-0.000115
0.000156
-0.000097
0.000096
-0.000047
0.000093
-0.000024
0.000028
-0.000016
0.000023
-0.000021
-0.000002
-0.000005
-0.000006
0.000002
-0.000011
-0.000014
-0.000005
-0.000021
-0.000025
-0.000038
-0.000014
-0.000043
-0.000051
-0.000030
-0.000066
-0.000047
-0.000093
-0.000044
-0.000089
-0.000086
-0.000100
-0.000108
-0.000099
-0.000145
-0.000094
-0.000197
-0.000105
-0.000275
-0.000095
-0.000360
-0.000050
-0.000457
-0.000029
-0.000572
0.000041
-0.000720
0.000127
-0.000890
0.000157
-0.001026
0.000257
-0.001232
0.000394
-0.001432
0.000499
-0.001655
0.000653
-0.001896