# vtk DataFile Version 2.0
Generated volume Mesh
ASCII
DATASET UNSTRUCTURED_GRID
POINTS 994 float
-0.416146 -0.294827 0.000000
-0.409251 -0.287252 0.000000
-0.421925 -0.286495 0.000000
-0.410201 -0.303043 0.000000
-0.427538 -0.278049 0.000000
-0.404095 -0.311138 0.000000
-0.432982 -0.269494 0.000000
-0.397829 -0.319111 0.000000
-0.438254 -0.260832 0.000000
-0.391406 -0.326958 0.000000
-0.443353 -0.252067 0.000000
-0.384828 -0.334675 0.000000
-0.448277 -0.243202 0.000000
-0.378098 -0.342260 0.000000
-0.453024 -0.234242 0.000000
-0.371218 -0.349710 0.000000
-0.457592 -0.225188 0.000000
-0.364192 -0.357021 0.000000
-0.461979 -0.216046 0.000000
-0.357021 -0.364192 0.000000
-0.466183 -0.206818 0.000000
-0.349710 -0.371218 0.000000
-0.470203 -0.197508 0.000000
-0.342260 -0.378098 0.000000
-0.474037 -0.188120 0.000000
-0.334675 -0.384828 0.000000
-0.477683 -0.178658 0.000000
-0.326958 -0.391406 0.000000
-0.481141 -0.169126 0.000000
-0.319111 -0.397829 0.000000
-0.484408 -0.159526 0.000000
-0.311138 -0.404095 0.000000
-0.487484 -0.149864 0.000000
-0.303043 -0.410201 0.000000
-0.490368 -0.140141 0.000000
-0.294827 -0.416146 0.000000
-0.493057 -0.130363 0.000000
-0.286495 -0.421925 0.000000
-0.495552 -0.120532 0.000000
-0.278049 -0.427538 0.000000
-0.497851 -0.110654 0.000000
-0.269494 -0.432982 0.000000
-0.499953 -0.100732 0.000000
-0.260832 -0.438254 0.000000
-0.501857 -0.090771 0.000000
-0.252067 -0.443353 0.000000
-0.503563 -0.080774 0.000000
-0.243202 -0.448277 0.000000
-0.505069 -0.070746 0.000000
-0.234242 -0.453024 0.000000
-0.506376 -0.060691 0.000000
-0.225188 -0.457592 0.000000
-0.507482 -0.050612 0.000000
-0.216046 -0.461979 0.000000
-0.508388 -0.040514 0.000000
-0.206818 -0.466183 0.000000
-0.509093 -0.030400 0.000000
-0.197508 -0.470203 0.000000
-0.509597 -0.020274 0.000000
-0.188120 -0.474037 0.000000
-0.509899 -0.010139 0.000000
-0.178658 -0.477683 0.000000
-0.510000 0.000000 0.000000
-0.169126 -0.481141 0.000000
-0.509899 0.010139 0.000000
-0.509597 0.020274 0.000000
-0.159526 -0.484408 0.000000
-0.509093 0.030400 0.000000
-0.149864 -0.487484 0.000000
-0.508388 0.040514 0.000000
-0.140141 -0.490368 0.000000
-0.507482 0.050612 0.000000
-0.130363 -0.493057 0.000000
-0.506376 0.060691 0.000000
-0.120532 -0.495552 0.000000
-0.505069 0.070746 0.000000
-0.110654 -0.497851 0.000000
-0.503563 0.080774 0.000000
-0.100732 -0.499953 0.000000
-0.501857 0.090771 0.000000
-0.090771 -0.501857 0.000000
-0.499953 0.100732 0.000000
-0.080774 -0.503563 0.000000
-0.497851 0.110654 0.000000
-0.070746 -0.505069 0.000000
-0.495552 0.120532 0.000000
-0.060691 -0.506376 0.000000
-0.493057 0.130363 0.000000
-0.050612 -0.507482 0.000000
-0.490368 0.140141 0.000000
-0.040514 -0.508388 0.000000
-0.487484 0.149864 0.000000
-0.484408 0.159526 0.000000
-0.030400 -0.509093 0.000000
-0.020274 -0.509597 0.000000
-0.481141 0.169126 0.000000
-0.010139 -0.509899 0.000000
-0.477683 0.178658 0.000000
0.000000 -0.510000 0.000000
-0.474037 0.188120 0.000000
0.010139 -0.509899 0.000000
-0.470203 0.197508 0.000000
0.020274 -0.509597 0.000000
-0.466183 0.206818 0.000000
0.030400 -0.509093 0.000000
-0.461979 0.216046 0.000000
0.040514 -0.508388 0.000000
-0.457592 0.225188 0.000000
0.050612 -0.507482 0.000000
-0.453024 0.234242 0.000000
0.060691 -0.506376 0.000000
-0.448277 0.243202 0.000000
0.070746 -0.505069 0.000000
-0.443353 0.252067 0.000000
0.080774 -0.503563 0.000000
-0.438254 0.260832 0.000000
0.090771 -0.501857 0.000000
-0.432982 0.269494 0.000000
0.100732 -0.499953 0.000000
-0.427538 0.278049 0.000000
0.110654 -0.497851 0.000000
-0.421925 0.286495 0.000000
0.120532 -0.495552 0.000000
-0.416146 0.294827 0.000000
0.130363 -0.493057 0.000000
-0.410201 0.303043 0.000000
0.140141 -0.490368 0.000000
-0.404095 0.311138 0.000000
0.149864 -0.487484 0.000000
0.159526 -0.484408 0.000000
-0.397829 0.319111 0.000000
0.169126 -0.481141 0.000000
-0.391406 0.326958 0.000000
0.178658 -0.477683 0.000000
-0.384828 0.334675 0.000000
0.188120 -0.474037 0.000000
-0.378098 0.342260 0.000000
0.197508 -0.470203 0.000000
-0.371218 0.349710 0.000000
0.206818 -0.466183 0.000000
-0.364192 0.357021 0.000000
0.216046 -0.461979 0.000000
-0.357021 0.364192 0.000000
0.225188 -0.457592 0.000000
-0.349710 0.371218 0.000000
0.234242 -0.453024 0.000000
-0.342260 0.378098 0.000000
0.243202 -0.448277 0.000000
-0.334675 0.384828 0.000000
0.252067 -0.443353 0.000000
-0.326958 0.391406 0.000000
0.260832 -0.438254 0.000000
-0.319111 0.397829 0.000000
0.269494 -0.432982 0.000000
-0.311138 0.404095 0.000000
0.278049 -0.427538 0.000000
-0.303043 0.410201 0.000000
0.286495 -0.421925 0.000000
-0.294827 0.416146 0.000000
0.294827 -0.416146 0.000000
-0.286495 0.421925 0.000000
0.303043 -0.410201 0.000000
-0.278049 0.427538 0.000000
0.311138 -0.404095 0.000000
-0.269494 0.432982 0.000000
0.319111 -0.397829 0.000000
-0.260832 0.438254 0.000000
0.326958 -0.391406 0.000000
-0.252067 0.443353 0.000000
0.334675 -0.384828 0.000000
-0.243202 0.448277 0.000000
0.342260 -0.378098 0.000000
-0.234242 0.453024 0.000000
0.349710 -0.371218 0.000000
-0.225188 0.457592 0.000000
0.357021 -0.364192 0.000000
-0.216046 0.461979 0.000000
0.364192 -0.357021 0.000000
-0.206818 0.466183 0.000000
0.371218 -0.349710 0.000000
-0.197508 0.470203 0.000000
0.378098 -0.342260 0.000000
-0.188120 0.474037 0.000000
0.384828 -0.334675 0.000000
-0.178658 0.477683 0.000000
0.391406 -0.326958 0.000000
-0.169126 0.481141 0.000000
0.397829 -0.319111 0.000000
-0.159526 0.484408 0.000000
0.404095 -0.311138 0.000000
-0.149864 0.487484 0.000000
0.410201 -0.303043 0.000000
-0.140141 0.490368 0.000000
0.416146 -0.294827 0.000000
-0.130363 0.493057 0.000000
0.421925 -0.286495 0.000000
-0.120532 0.495552 0.000000
0.427538 -0.278049 0.000000
-0.110654 0.497851 0.000000
0.432982 -0.269494 0.000000
-0.100732 0.499953 0.000000
0.438254 -0.260832 0.000000
-0.090771 0.501857 0.000000
0.443353 -0.252067 0.000000
-0.080774 0.503563 0.000000
0.448277 -0.243202 0.000000
-0.070746 0.505069 0.000000
0.453024 -0.234242 0.000000
-0.060691 0.506376 0.000000
0.457592 -0.225188 0.000000
-0.050612 0.507482 0.000000
0.461979 -0.216046 0.000000
-0.040514 0.508388 0.000000
0.466183 -0.206818 0.000000
-0.030400 0.509093 0.000000
0.470203 -0.197508 0.000000
-0.020274 0.509597 0.000000
0.474037 -0.188120 0.000000
-0.010139 0.509899 0.000000
0.477683 -0.178658 0.000000
0.000000 0.510000 0.000000
0.481141 -0.169126 0.000000
0.010139 0.509899 0.000000
0.484408 -0.159526 0.000000
0.020274 0.509597 0.000000
0.487484 -0.149864 0.000000
0.030400 0.509093 0.000000
0.490368 -0.140141 0.000000
0.040514 0.508388 0.000000
0.493057 -0.130363 0.000000
0.050612 0.507482 0.000000
0.495552 -0.120532 0.000000
0.060691 0.506376 0.000000
0.497851 -0.110654 0.000000
0.070746 0.505069 0.000000
0.499953 -0.100732 0.000000
0.080774 0.503563 0.000000
0.501857 -0.090771 0.000000
0.090771 0.501857 0.000000
0.503563 -0.080774 0.000000
0.100732 0.499953 0.000000
0.505069 -0.070746 0.000000
0.110654 0.497851 0.000000
0.506376 -0.060691 0.000000
0.120532 0.495552 0.000000
0.507482 -0.050612 0.000000
0.130363 0.493057 0.000000
0.508388 -0.040514 0.000000
0.140141 0.490368 0.000000
0.509093 -0.030400 0.000000
0.149864 0.487484 0.000000
0.509597 -0.020274 0.000000
0.159526 0.484408 0.000000
0.509899 -0.010139 0.000000
0.169126 0.481141 0.000000
0.510000 0.000000 0.000000
0.178658 0.477683 0.000000
0.509899 0.010139 0.000000
0.188120 0.474037 0.000000
0.509597 0.020274 0.000000
0.197508 0.470203 0.000000
0.509093 0.030400 0.000000
0.206818 0.466183 0.000000
0.508388 0.040514 0.000000
0.216046 0.461979 0.000000
0.507482 0.050612 0.000000
0.225188 0.457592 0.000000
0.506376 0.060691 0.000000
0.234242 0.453024 0.000000
0.505069 0.070746 0.000000
0.243202 0.448277 0.000000
0.503563 0.080774 0.000000
0.252067 0.443353 0.000000
0.501857 0.090771 0.000000
0.260832 0.438254 0.000000
0.499953 0.100732 0.000000
0.269494 0.432982 0.000000
0.497851 0.110654 0.000000
0.278049 0.427538 0.000000
0.495552 0.120532 0.000000
0.286495 0.421925 0.000000
0.493057 0.130363 0.000000
0.294827 0.416146 0.000000
0.490368 0.140141 0.000000
0.303043 0.410201 0.000000
0.487484 0.149864 0.000000
0.311138 0.404095 0.000000
0.484408 0.159526 0.000000
0.319111 0.397829 0.000000
0.481141 0.169126 0.000000
0.326958 0.391406 0.000000
0.477683 0.178658 0.000000
0.334675 0.384828 0.000000
0.474037 0.188120 0.000000
0.342260 0.378098 0.000000
0.470203 0.197508 0.000000
0.349710 0.371218 0.000000
0.466183 0.206818 0.000000
0.357021 0.364192 0.000000
0.461979 0.216046 0.000000
0.364192 0.357021 0.000000
0.457592 0.225188 0.000000
0.371218 0.349710 0.000000
0.453024 0.234242 0.000000
0.378098 0.342260 0.000000
0.448277 0.243202 0.000000
0.384828 0.334675 0.000000
0.443353 0.252067 0.000000
0.391406 0.326958 0.000000
0.438254 0.260832 0.000000
0.397829 0.319111 0.000000
0.432982 0.269494 0.000000
0.404095 0.311138 0.000000
0.427538 0.278049 0.000000
0.410201 0.303043 0.000000
0.421925 0.286495 0.000000
0.416146 0.294827 0.000000
-0.415025 -0.278844 0.000000
-0.403306 -0.295541 0.000000
-0.420627 -0.270320 0.000000
-0.397194 -0.303706 0.000000
-0.426054 -0.261684 0.000000
-0.390916 -0.311745 0.000000
-0.431303 -0.252938 0.000000
-0.384475 -0.319654 0.000000
-0.436373 -0.244088 0.000000
-0.377875 -0.327430 0.000000
-0.441261 -0.235136 0.000000
-0.371117 -0.335070 0.000000
-0.445965 -0.226086 0.000000
-0.364205 -0.342571 0.000000
-0.450484 -0.216942 0.000000
-0.357141 -0.349929 0.000000
-0.454816 -0.207707 0.000000
-0.349929 -0.357141 0.000000
-0.458958 -0.198386 0.000000
-0.342571 -0.364205 0.000000
-0.462910 -0.188983 0.000000
-0.335070 -0.371117 0.000000
-0.466668 -0.179501 0.000000
-0.327430 -0.377875 0.000000
-0.470233 -0.169944 0.000000
-0.319654 -0.384475 0.000000
-0.473602 -0.160317 0.000000
-0.311745 -0.390916 0.000000
-0.476773 -0.150623 0.000000
-0.303706 -0.397194 0.000000
-0.479747 -0.140866 0.000000
-0.295541 -0.403306 0.000000
-0.482520 -0.131050 0.000000
-0.287252 -0.409251 0.000000
-0.485094 -0.121178 0.000000
[...]
POINT_DATA 994
SCALARS u1 float
LOOKUP_TABLE default
-0.2
-0.2
-0.2
-0.2
-0.2
-0.1
-0.2
-0.1
-0.3
-0.1
-0.3
-0.09
-0.3
-0.08
-0.3
-0.07
-0.4
-0.07
-0.4
-0.06
-0.5
-0.06
-0.5
-0.06
-0.5
-0.07
-0.6
-0.07
-0.6
-0.08
-0.7
-0.08
-0.7
-0.09
-0.8
-0.1
-0.9
-0.1
-0.9
-0.1
-1
-0.1
-1
-0.1
-1
-0.1
-1
-0.2
-1
-0.2
-1
-0.2
-1
-0.2
-1
-0.2
-1
-0.2
-1
-0.2
-1
-0.2
-1
-0.3
-1
-1
-0.3
-1
-0.3
-1
-0.3
-1
-0.3
-1
-0.3
-1
-0.3
-1
-0.3
-1
-0.3
-1
-0.3
-1
-0.3
-1
-0.3
-1
-0.3
-0.9
-0.3
-0.9
-0.8
-0.3
-0.3
-0.8
-0.3
-0.8
-0.3
-0.7
-0.3
-0.7
-0.3
-0.6
-0.3
-0.6
-0.3
-0.6
-0.3
-0.6
-0.3
-0.5
-0.3
-0.5
-0.3
-0.5
-0.3
-0.5
-0.3
-0.5
-0.3
-0.5
-0.4
-0.4
-0.4
-0.4
-0.4
-0.4
-0.4
-0.4
-0.4
-0.4
-0.4
-0.5
-0.4
-0.5
-0.4
-0.5
-0.4
-0.5
-0.4
-0.5
-0.4
-0.5
-0.4
-0.6
-0.4
-0.6
-0.4
-0.6
-0.4
-0.6
-0.5
-0.6
-0.5
-0.6
-0.5
-0.7
-0.5
-0.7
-0.5
-0.7
-0.5
-0.7
-0.5
-0.7
-0.6
-0.7
-0.6
-0.7
-0.6
-0.7
-0.6
-0.7
-0.6
-0.8
-0.6
-0.8
-0.7
-0.8
-0.7
-0.8
-0.7
-0.8
-0.7
-0.7
-0.7
-0.7
-0.7
-0.7
-0.8
-0.7
-0.8
-0.7
-0.8
-0.7
-0.8
-0.7
-0.8
-0.7
-0.8
-0.6
-0.8
-0.6
-0.8
-0.6
-0.8
-0.6
-0.8
-0.6
-0.9
-0.5
-0.8
-0.5
-0.8
-0.5
-0.8
-0.4
-0.8
-0.4
-0.8
-0.3
-0.8
-0.3
-0.8
-0.3
-0.8
-0.2
-0.8
-0.2
-0.8
-0.1
-0.8
-0.07
-0.8
-0.03
-0.8
0.01
-0.8
0.05
-0.8
0.09
-0.8
0.1
-0.8
0.1
-0.9
0.2
-0.9
0.2
-0.9
0.2
-0.9
0.2
-0.9
0.2
-0.9
0.2
-0.9
0.2
-1
0.2
-1
0.1
-1
0.1
-1
0.06
-1
0.01
-1
-0.03
-1
-0.08
-1
-0.1
-1
-0.2
-1
-0.2
-1
-0.3
-1
-0.4
-1
-0.4
-1
-0.5
-1
-0.5
-1
-0.6
-1
-0.6
-1
-0.7
-1
-0.7
-1
-0.8
-1
-0.8
-1
-0.8
-1
-0.9
-1
-0.9
-1
-0.9
-1
-0.9
-1
-1
-1
-1
-1
-0.2
-0.2
-0.2
-0.2
-0.3
-0.1
-0.3
-0.1
-0.3
-0.1
-0.3
-0.09
-0.4
-0.08
-0.4
-0.07
-0.5
-0.06
-0.5
-0.06
-0.5
-0.06
-0.6
-0.06
-0.6
-0.07
-0.7
-0.07
-0.7
-0.08
-0.8
-0.08
-0.9
-0.09
-0.9
-0.09
-1
-0.1
-1
-0.1
-1
-0.1
-1
-0.1
-1
-0.1
-1
-0.1
-1
-0.2
-1
-0.2
-1
-0.2
-1
-0.2
-1
-0.2
-1
-0.2
-1
-0.2
-1
-0.2
-1
-0.3
-1
-0.3
-1
-0.3
-1
-0.3
-1
-0.3
-1
-0.3
-1
-0.3
-1
-0.3
-1
-0.3
-1
-0.3
-1
-0.3
-0.9
-0.3
-0.9
-0.3
-0.8
-0.3
-0.8
-0.3
-0.8
-0.3
-0.7
-0.3
-0.7
-0.3
-0.6
-0.3
-0.6
-0.4
-0.6
-0.4
-0.6
-0.4
-0.5
-0.4
-0.5
-0.4
-0.5
-0.4
-0.5
-0.4
-0.5
-0.4
-0.5
-0.4
-0.4
-0.4
-0.4
-0.5
-0.4
-0.5
-0.4
-0.5
-0.4
-0.5
-0.4
-0.5
-0.4
-0.5
-0.4
-0.6
-0.4
-0.6
-0.4
-0.6
-0.4
-0.6
-0.4
-0.6
-0.4
-0.6
-0.4
-0.6
-0.5
-0.7
-0.5
-0.7
-0.5
-0.7
-0.5
-0.7
-0.5
-0.7
-0.5
-0.7
-0.5
-0.7
-0.5
-0.7
-0.6
-0.7
-0.6
-0.8
-0.6
-0.8
-0.6
-0.8
-0.6
-0.8
-0.6
-0.8
-0.7
-0.7
-0.7
-0.7
-0.7
-0.7
-0.7
-0.7
-0.7
-0.7
-0.7
-0.7
-0.8
-0.7
-0.8
-0.7
-0.8
-0.7
-0.8
-0.6
-0.8
-0.6
-0.8
-0.6
-0.8
-0.6
-0.8
-0.5
-0.8
-0.5
-0.8
-0.5
-0.8
-0.4
-0.8
-0.4
-0.8
-0.4
-0.8
-0.3
-0.8
-0.3
-0.8
-0.2
-0.8
-0.2
-0.8
-0.1
-0.8
-0.08
-0.9
-0.03
-0.9
0.01
-0.9
0.05
-0.9
0.09
-0.9
0.1
-0.9
0.1
-0.9
0.2
-0.9
0.2
-0.9
0.2
-0.9
0.2
-1
0.2
-1
0.2
-1
0.2
-1
0.2
-1
0.1
-1
0.1
-1
0.06
-1
0.01
-1
-0.03
-1
-0.09
-1
-0.1
-1
-0.2
-1
-0.2
-1
-0.3
-1
-0.4
-1
-0.4
-1
-0.5
-1
-0.5
-1
-0.6
-1
-0.6
-1
-0.7
-1
-0.7
-1
-0.8
-1
-0.8
-1
-0.8
-1
-0.9
-1
-0.9
-1
-0.9
-1
-0.9
-1
-1
-1
-0.2
-0.2
-0.2
-0.2
-0.2
-0.1
-0.3
-0.1
-0.3
-0.1
-0.3
-0.09
-0.3
-0.4
-0.08
-0.4
-0.4
-0.07
-0.4
-0.4
-0.07
-0.5
-0.5
-0.06
-0.5
-0.5
-0.06
-0.6
-0.6
-0.06
-0.6
-0.6
-0.07
-0.7
-0.7
-0.07
-0.7
-0.08
-0.8
-0.08
-0.8
-0.09
-0.9
-0.1
-0.9
-0.1
-1
-0.1
-1
-0.1
-1
-0.1
-1
-0.1
-1
-0.1
-0.2
-1
-0.2
-0.2
-1
-0.2
-0.2
-1
-0.2
-0.2
-0.2
-0.2
-1
-0.2
-0.2
-1
-0.2
-0.2
-1
-0.2
-0.3
-1
-0.3
-1
-0.3
-1
-0.3
-1
-0.3
-1
-0.3
-1
-0.3
-1
-0.3
-1
-0.3
-1
-0.3
-1
-0.3
-1
-0.3
-1
-0.3
-0.9
-0.3
-0.9
-0.9
-0.8
-0.3
-0.8
-0.8
-0.3
-0.7
-0.8
-0.3
-0.7
-0.7
-0.3
-0.7
-0.7
-0.3
-0.7
-0.6
-0.3
-0.6
-0.6
-0.3
-0.6
-0.6
-0.3
-0.6
-0.3
-0.5
-0.3
-0.5
-0.4
-0.5
-0.4
-0.5
-0.4
-0.5
-0.4
-0.5
-0.4
-0.5
-0.4
-0.4
-0.4
-0.4
-0.4
-0.4
-0.4
-0.5
-0.5
-0.4
-0.5
-0.5
-0.4
-0.5
-0.5
-0.4
-0.5
-0.5
-0.4
-0.5
-0.5
-0.4
-0.5
-0.6
-0.4
-0.6
-0.6
-0.4
-0.6
-0.4
-0.6
-0.4
-0.6
-0.4
-0.6
-0.5
-0.6
-0.5
-0.7
-0.5
-0.7
-0.5
-0.7
-0.5
-0.7
-0.5
-0.7
-0.5
-0.7
-0.5
-0.7
-0.6
-0.7
-0.6
-0.6
-0.7
-0.6
-0.6
-0.8
-0.6
-0.6
-0.8
-0.6
-0.6
-0.8
-0.7
-0.7
-0.8
-0.7
-0.7
-0.8
-0.7
-0.7
-0.7
-0.7
-0.7
-0.7
-0.7
-0.7
-0.7
-0.7
-0.8
-0.7
-0.8
-0.7
-0.8
-0.7
-0.8
-0.7
-0.8
-0.6
-0.8
-0.6
-0.8
-0.6
-0.8
-0.6
-0.6
-0.8
-0.6
-0.5
-0.8
-0.5
-0.5
-0.8
-0.5
-0.5
-0.8
-0.5
-0.4
-0.8
-0.4
-0.4
-0.8
-0.4
-0.4
-0.8
-0.3
-0.3
-0.8
-0.3
-0.8
-0.2
-0.8
-0.2
-0.8
-0.1
-0.8
-0.1
-0.8
-0.05
-0.8
-0.02
-0.8
0.03
-0.9
0.07
-0.9
0.1
-0.9
0.1
-0.9
0.2
-0.9
0.2
-0.9
0.2
-0.9
0.2
-0.9
-0.9
0.2
-0.9
-0.9
0.2
-1
-1
0.2
-1
-1
0.2
-1
-1
0.1
-1
-1
0.1
-1
-1
0.08
-1
0.04
-1
-0.01
-1
-0.07
-1
-0.1
-1
-0.2
-1
-0.2
-1
-0.3
-1
-0.3
-1
-0.4
-1
-0.4
-1
-0.5
-0.5
-1
-0.5
-0.6
-1
-0.6
-0.6
-1
-0.6
-0.7
-1
-0.7
-0.7
-1
-0.7
-0.8
-1
-0.8
-0.8
-1
-0.8
-1
-0.8
-1
-0.9
-1
-0.9
-1
-0.9
-1
-0.9
-1
-1
-1
-1
SCALARS u2 float
LOOKUP_TABLE default
-0.5
-0.5
-0.5
-0.5
-0.5
-0.5
-0.5
-0.5
-0.6
-0.4
-0.6
-0.4
-0.6
-0.4
-0.6
-0.4
-0.6
-0.4
-0.6
-0.4
-0.7
-0.4
-0.7
-0.4
-0.7
-0.4
-0.7
-0.4
-0.7
-0.4
-0.7
-0.4
-0.8
-0.4
-0.8
-0.4
-0.8
-0.5
-0.8
-0.5
-0.8
-0.5
-0.8
-0.5
-0.8
-0.5
-0.8
-0.5
-0.8
-0.6
-0.8
-0.6
-0.8
-0.6
-0.8
-0.6
-0.8
-0.7
-0.8
-0.7
-0.8
-0.7
-0.8
-0.8
-0.8
-0.8
-0.8
-0.8
-0.9
-0.8
-0.9
-0.8
-1
-0.8
-1
-0.8
-1
-0.8
-1
-0.8
-1
-0.8
-1
-0.8
-1
-0.8
-1
-0.8
-1
-0.9
-1
-0.9
-0.9
-1
-1
-0.9
-1
-0.9
-1
-0.9
-1
-0.9
-1
-1
-1
-1
-1
-1
-1
-1
-1
-1
-1
-1
-1
-1
-1
-1
-1
-1
-0.9
-1
-0.9
-1
-0.8
-1
-0.8
-1
-0.7
-0.7
-1
-0.6
-1
-0.6
-1
-0.5
-1
-0.5
-1
-0.4
-1
-0.4
-1
-0.4
-1
-0.3
-1
-0.3
-1
-0.3
-1
-0.2
-1
-0.2
-1
-0.2
-1
-0.2
-1
-0.1
-1
-0.1
-0.9
-0.1
-0.9
-0.09
-0.9
-0.07
-0.9
-0.06
-0.8
-0.05
-0.8
-0.04
-0.8
-0.04
-0.7
-0.03
-0.7
-0.03
-0.7
-0.04
-0.6
-0.04
-0.6
-0.04
-0.5
-0.05
-0.5
-0.06
-0.4
-0.07
-0.3
-0.07
-0.3
-0.08
-0.2
-0.09
-0.2
-0.1
-0.1
-0.1
-0.07
-0.1
-0.03
-0.1
0.02
-0.1
0.06
-0.2
0.1
-0.2
0.1
-0.2
0.2
-0.2
0.2
-0.2
0.2
-0.2
0.2
-0.2
0.2
-0.3
0.2
-0.3
0.2
-0.3
0.2
-0.3
0.1
-0.3
0.1
-0.3
0.08
-0.3
0.05
-0.3
0.007
-0.3
-0.04
-0.3
-0.08
-0.3
-0.1
-0.3
-0.2
-0.3
-0.2
-0.3
-0.3
-0.3
-0.3
-0.3
-0.4
-0.3
-0.4
-0.3
-0.4
-0.3
-0.5
-0.3
-0.5
-0.3
-0.5
-0.3
-0.6
-0.3
-0.6
-0.3
-0.6
-0.3
-0.6
-0.3
-0.7
-0.3
-0.7
-0.3
-0.7
-0.3
-0.7
-0.4
-0.7
-0.4
-0.7
-0.4
-0.7
-0.4
-0.7
-0.4
-0.8
-0.4
-0.8
-0.5
-0.8
-0.5
-0.8
-0.5
-0.8
-0.5
-0.8
-0.5
-0.8
-0.6
-0.7
-0.6
-0.7
-0.6
-0.7
-0.6
-0.7
-0.6
-0.7
-0.6
-0.7
-0.7
-0.7
-0.5
-0.5
-0.5
-0.5
-0.5
-0.4
-0.5
-0.4
-0.5
-0.4
-0.6
-0.4
-0.6
-0.4
-0.6
-0.4
-0.6
-0.4
-0.6
-0.4
-0.6
-0.4
-0.7
-0.4
-0.7
-0.4
-0.7
-0.4
-0.7
-0.4
-0.7
-0.4
-0.7
-0.5
-0.7
-0.5
-0.8
-0.5
-0.8
-0.5
-0.8
-0.5
-0.8
-0.5
-0.8
-0.6
-0.8
-0.6
-0.8
-0.6
-0.8
-0.6
-0.8
-0.7
-0.8
-0.7
-0.8
-0.7
-0.8
-0.8
-0.8
-0.8
-0.8
-0.9
-0.8
-0.9
-0.8
-1
-0.8
-1
-0.8
-1
-0.8
-1
-0.8
-1
-0.9
-1
-0.9
-1
-0.9
-1
-0.9
-1
-0.9
-1
-0.9
-1
-0.9
-1
-0.9
-1
-0.9
-1
-1
-1
-1
-1
-1
-1
-1
-1
-1
-1
-1
-1
-1
-1
-1
-1
-1
-1
-1
-1
-1
-0.9
-1
-0.9
-1
-0.8
-1
-0.8
-1
-0.7
-1
-0.7
-1
-0.6
-1
-0.6
-1
-0.5
-1
-0.5
-1
-0.4
-1
-0.4
-1
-0.3
-1
-0.3
-1
-0.3
-1
-0.3
-1
-0.2
-1
-0.2
-1
-0.2
-1
-0.2
-0.9
-0.1
-0.9
-0.1
-0.9
-0.1
-0.9
-0.09
-0.8
-0.07
-0.8
-0.06
-0.8
-0.05
-0.7
-0.04
-0.7
-0.04
-0.7
-0.03
-0.6
-0.03
-0.6
-0.03
-0.5
-0.04
-0.5
-0.04
-0.4
-0.05
-0.3
-0.06
-0.3
-0.06
-0.2
-0.07
-0.2
-0.08
-0.1
-0.09
-0.08
-0.09
-0.03
-0.1
0.02
-0.1
0.06
-0.1
0.1
-0.1
0.1
-0.1
0.2
-0.2
0.2
-0.2
0.2
-0.2
0.2
-0.2
0.2
-0.2
0.2
-0.2
0.2
-0.2
0.2
-0.2
0.1
-0.3
0.1
-0.3
0.08
-0.3
0.05
-0.3
0.005
-0.3
-0.04
-0.3
-0.08
-0.3
-0.1
-0.3
-0.2
-0.3
-0.2
-0.3
-0.3
-0.3
-0.3
-0.3
-0.4
-0.3
-0.4
-0.3
-0.4
-0.3
-0.5
-0.3
-0.5
-0.3
-0.5
-0.3
-0.6
-0.3
-0.6
-0.4
-0.6
-0.4
-0.6
-0.4
-0.7
-0.4
-0.7
-0.4
-0.7
-0.4
-0.7
-0.4
-0.7
-0.4
-0.7
-0.5
-0.7
-0.5
-0.7
-0.5
-0.8
-0.5
-0.8
-0.5
-0.8
-0.5
-0.8
-0.6
-0.8
-0.6
-0.8
-0.6
-0.8
-0.6
-0.7
-0.6
-0.7
-0.6
-0.7
-0.6
-0.7
-0.7
-0.7
-0.7
-0.7
-0.5
-0.5
-0.5
-0.5
-0.5
-0.5
-0.5
-0.4
-0.5
-0.4
-0.6
-0.4
-0.6
-0.6
-0.4
-0.6
-0.6
-0.4
-0.6
-0.6
-0.4
-0.6
-0.6
-0.4
-0.6
-0.7
-0.4
-0.7
-0.7
-0.4
-0.7
-0.7
-0.4
-0.7
-0.7
-0.4
-0.7
-0.4
-0.7
-0.4
-0.8
-0.4
-0.8
-0.5
-0.8
-0.5
-0.8
-0.5
-0.8
-0.5
-0.8
-0.5
-0.8
-0.5
-0.8
-0.6
-0.6
-0.8
-0.6
-0.6
-0.8
-0.6
-0.6
-0.8
-0.7
-0.6
-0.7
-0.7
-0.8
-0.7
-0.7
-0.8
-0.8
-0.8
-0.8
-0.8
-0.8
-0.8
-0.9
-0.8
-0.9
-0.8
-0.9
-0.8
-1
-0.8
-1
-0.8
-1
-0.8
-1
-0.8
-1
-0.8
-1
-0.8
-1
-0.9
-1
-0.9
-1
-0.9
-1
-0.9
-0.9
-0.9
-1
-0.9
-0.9
-1
-0.9
-0.9
-1
-0.9
-1
-1
-1
-1
-1
-1
-1
-1
-1
-1
-1
-1
-1
-1
-1
-1
-1
-1
-1
-1
-1
-1
-1
-1
-1
-0.9
-1
-0.9
-1
-0.8
-1
-0.7
-1
-0.7
-0.7
-1
-0.6
-0.6
-1
-0.6
-0.5
-1
-0.5
-0.5
-1
-0.5
-0.5
-1
-0.4
-0.4
-1
-0.4
-0.4
-1
-0.3
-0.4
-1
-0.3
-1
-0.3
-1
-0.3
-1
-0.2
-1
-0.2
-1
-0.2
-1
-0.2
-1
-0.1
-0.9
-0.1
-0.9
-0.1
-0.9
-0.09
-0.9
-0.07
-0.8
-0.06
-0.8
-0.8
-0.05
-0.8
-0.8
-0.04
-0.7
-0.7
-0.04
-0.7
-0.7
-0.03
-0.6
-0.6
-0.03
-0.6
-0.6
-0.04
-0.5
-0.5
-0.04
-0.5
-0.5
-0.04
-0.4
-0.05
-0.4
-0.06
-0.3
-0.07
-0.3
-0.07
-0.2
-0.08
-0.2
-0.09
-0.1
-0.1
-0.06
-0.1
-0.003
-0.1
0.04
-0.1
-0.1
0.08
-0.1
-0.1
0.1
-0.2
-0.2
0.2
-0.2
-0.2
0.2
-0.2
-0.2
0.2
-0.2
-0.2
0.2
-0.2
-0.2
0.2
-0.2
-0.2
0.2
-0.2
0.2
-0.3
0.2
-0.3
0.2
-0.3
0.1
-0.3
0.1
-0.3
0.06
-0.3
0.03
-0.3
-0.02
-0.3
-0.06
-0.3
-0.1
-0.3
-0.1
-0.3
-0.2
-0.3
-0.2
-0.3
-0.3
-0.3
-0.3
-0.3
-0.3
-0.4
-0.4
-0.3
-0.4
-0.4
-0.3
-0.4
-0.5
-0.3
-0.5
-0.5
-0.3
-0.5
-0.5
-0.3
-0.6
-0.6
-0.3
-0.6
-0.3
-0.6
-0.3
-0.6
-0.3
-0.6
-0.4
-0.7
-0.4
-0.7
-0.4
-0.7
-0.4
-0.7
-0.4
-0.7
-0.4
-0.7
-0.4
-0.7
-0.4
-0.5
-0.7
-0.5
-0.5
-0.8
-0.5
-0.5
-0.8
-0.5
-0.5
-0.8
-0.5
-0.5
-0.8
-0.5
-0.5
-0.8
-0.6
-0.6
-0.8
-0.6
-0.8
-0.6
-0.7
-0.6
-0.7
-0.6
-0.7
-0.6
-0.7
-0.6
-0.7
-0.7
-0.7
-0.7
SCALARS strain_1 float
LOOKUP_TABLE default
-1.105799
-0.723376
0.711097
-2.768246
2.550090
-4.404236
4.459042
-5.975207
6.473648
-7.428449
8.538214
-8.864544
10.647870
-10.165868
12.861680
-11.451085
15.181148
-12.610869
17.504681
-13.680878
19.922147
-14.737346
22.423263
-15.661633
24.945527
-16.577324
27.556317
-17.399021
30.236048
-18.152616
32.957915
-18.803516
35.733065
-19.459209
38.559068
-19.991777
41.445199
-20.434975
44.383589
-20.861608
47.321963
-21.235146
50.339406
-21.534116
53.385582
-21.775211
56.474120
-21.975085
59.573267
-22.105521
62.730790
-22.168471
65.882737
-22.206547
69.120808
-22.195847
72.303385
-22.121328
75.511469
-22.020663
78.712327
-21.842663
81.969830
-21.648467
85.207776
88.435848
-21.454688
91.651561
-21.170666
94.863149
-20.871118
98.029538
-20.544445
101.243435
-20.179481
104.387609
-19.758780
107.506399
-19.347837
110.590009
-18.931633
113.653453
-18.482904
116.667393
-17.968064
119.641498
-17.493188
122.544939
-16.940164
125.406874
-16.430721
128.191171
130.949911
-15.915120
-15.371981
133.633251
-14.754007
136.234269
-14.210758
138.781180
-13.639300
141.211427
-13.066606
143.586913
-12.485471
145.868468
-11.966790
148.064309
-11.398363
150.179726
-10.822276
152.175033
-10.304566
154.084343
-9.767702
155.896301
-9.225449
157.622044
-8.714100
159.190200
-8.222015
160.669998
-7.719556
162.043222
-7.187773
163.304474
-6.734762
164.466246
-6.319547
-5.892524
165.494807
-5.467405
166.383674
-5.087807
167.185960
-4.705483
167.832223
-4.362532
168.387309
-4.042487
168.803694
-3.712278
169.101355
-3.469192
169.280580
-3.179033
169.303242
-2.946481
169.203359
-2.734479
169.004262
-2.571021
168.709761
-2.382971
168.272848
-2.237344
167.682145
-2.171343
167.000111
-2.043054
166.238752
-1.964834
165.243717
-1.917842
164.209169
-1.928485
163.058840
-1.929040
161.776009
-1.973353
160.380589
-2.000482
158.925641
-2.055945
157.334452
-2.155528
155.614648
-2.302691
153.834994
-2.417068
151.947031
-2.569502
149.966251
-2.759665
147.874942
-2.952984
145.735986
-3.154449
143.482882
-3.393466
141.187249
-3.656010
138.827073
-3.880110
136.346978
-4.175831
133.776223
-4.466053
131.216182
-4.762154
128.538833
-5.078404
125.838268
-5.416348
123.078275
-5.733113
120.266018
-6.091321
117.414099
-6.421704
114.537061
-6.813754
111.622089
-7.152805
108.685693
-7.518530
105.689679
-7.910548
102.695478
-8.244497
99.671722
-8.652756
96.675908
-9.039729
93.627866
-9.421125
90.597763
-9.779895
87.535240
-10.148428
84.500249
-10.545769
81.486866
-10.917367
78.441234
-11.262313
75.424337
-11.622697
72.469745
-11.967798
69.467980
-12.330454
66.548357
-12.635987
63.617984
-12.963594
60.727576
-13.272790
57.857473
-13.556809
55.076942
-13.861603
52.269656
-14.088121
49.559626
-14.365312
46.859290
-14.599020
44.228697
-14.798552
41.615983
-14.980117
39.053784
-15.154961
36.591339
-15.293844
34.120158
-15.423147
31.766192
-15.527342
29.397963
-15.603977
27.134124
-15.682430
24.912072
-15.706567
22.764469
-15.652503
20.651184
-15.599384
18.627872
-15.557966
16.643659
-15.446249
14.756599
-15.314093
12.901199
-15.112186
11.121392
-14.914245
9.390747
-14.680803
7.751178
-14.375188
6.149452
-14.053608
4.627508
-13.639894
3.154049
-13.225846
1.788630
-12.769501
0.414978
-12.268392
-0.859008
-11.695695
-2.077324
-11.114360
-3.219474
-10.428700
-4.325060
-9.713410
-5.379429
-8.980728
-6.358681
-8.143688
-7.301401
1.100084
-2.425416
2.965848
-4.110076
4.897864
-5.671885
6.913763
-7.155301
9.050596
-8.573083
11.222477
-9.927168
13.458701
-11.179535
15.722616
-12.381939
18.105543
-13.510029
20.568428
-14.542346
23.079478
-15.524812
25.633385
-16.408188
28.278895
-17.230585
30.946194
-18.011110
33.717323
-18.711702
36.530678
-19.336329
39.368241
-19.866477
42.253844
-20.367652
45.214852
-20.785720
48.184818
-21.157854
51.190513
-21.418636
54.272475
-21.695651
57.382322
-21.904928
60.475549
-22.023105
63.597051
-22.106915
66.766791
-22.147133
69.945690
-22.121877
73.161986
-22.040041
76.347276
-21.974402
79.554756
-21.798128
82.748208
-21.613848
85.942198
-21.384504
89.147928
-21.125353
92.314032
-20.777362
95.527395
-20.479310
98.633651
-20.119485
101.781129
-19.763395
104.840893
-19.332586
107.937874
-18.876426
110.909378
-18.435560
113.903260
-17.937855
116.834963
-17.505434
119.686866
-16.947524
122.482707
-16.463409
125.231286
-15.911609
127.945624
-15.373294
130.572957
-14.819222
133.097566
-14.309122
135.573012
-13.722547
137.964599
-13.195780
140.271690
-12.632288
142.480557
-12.104429
144.584704
-11.554678
146.625540
-11.021783
148.544876
-10.503355
150.360183
-10.002944
152.086490
-9.492865
153.699761
-8.977130
155.220884
-8.494474
156.571111
-8.043511
157.876350
-7.599553
159.005567
-7.129448
160.036831
-6.738826
160.949501
-6.341843
161.736103
-5.977667
162.402429
-5.614735
162.950285
-5.268764
163.385421
-4.940866
163.665697
-4.679485
163.848649
-4.399836
163.874572
-4.176244
163.806809
-3.939005
163.578818
-3.751242
163.272049
-3.589122
162.786757
-3.412780
162.197501
-3.287740
161.508122
-3.169229
160.685716
-3.161831
159.725794
-3.068469
158.693640
-3.030323
157.517869
-3.054866
156.232000
-3.056783
154.830567
-3.115757
153.305624
-3.197744
151.705390
-3.252096
149.996556
-3.383930
148.183341
-3.500064
146.260758
-3.636290
144.291170
-3.831292
142.176341
-4.003674
140.005942
-4.211610
137.726642
-4.410814
135.385223
-4.690777
133.016194
-4.943155
130.525751
-5.194979
127.988875
-5.466336
125.354219
-5.785194
122.705607
-6.032032
119.998010
-6.398366
117.215168
-6.700709
114.396013
-7.050010
111.547814
-7.402894
108.694814
-7.761410
105.734381
-8.095921
102.833901
-8.473377
99.849676
-8.807501
96.863682
-9.179864
93.853301
-9.533976
90.838881
-9.878721
87.851619
-10.254654
84.825480
-10.623852
81.828214
-10.983374
78.826064
-11.371495
75.780801
-11.719411
72.826647
-12.047223
69.866304
-12.377000
66.936761
-12.702001
63.993046
-12.993000
61.114102
-13.318384
58.274946
-13.618693
55.439344
-13.889601
52.642831
-14.190219
49.922956
-14.449354
47.193662
-14.668499
44.526675
-14.862387
41.903348
-15.060397
39.341630
-15.223984
36.859562
-15.383952
34.349617
-15.544779
31.985045
-15.636656
29.604661
-15.684053
27.302611
-15.734851
25.074424
-15.758358
22.914716
-15.753151
20.760844
-15.737287
18.743167
-15.677158
16.749316
-15.541555
14.809011
-15.397351
12.980771
-15.239758
11.144437
-15.009156
9.433736
-14.774475
7.786632
-14.489804
6.150814
-14.192245
4.600477
-13.780805
3.125289
-13.370165
1.727180
-12.896907
0.361690
-12.405452
-0.913626
-11.821572
-2.189586
-11.232699
-3.328559
-10.582194
-4.429163
-9.851940
-5.481206
-9.085451
-8.264609
-6.475437
-7.390856
0.318856
-1.777075
1.861351
-3.468742
3.713089
-5.061090
5.667249
-6.569321
7.717505
-8.027069
9.861891
-9.375820
11.921982
13.665486
-10.822982
15.985619
14.838563
-11.910518
18.360210
17.262048
-13.051717
19.622610
20.860519
-14.098290
22.119495
23.420913
-14.918079
25.952215
24.637640
-16.056416
27.275299
28.640966
-16.934047
31.508941
29.901759
-17.695655
33.497630
-18.399832
36.125784
-19.057914
38.934083
-19.749819
41.854556
-20.195641
44.765898
-20.612897
47.710473
-21.017529
50.663166
-21.344207
53.168581
-21.602332
56.936303
-21.848053
60.021324
-21.993733
-22.106401
63.148346
-22.167014
-22.140099
66.360649
-22.167435
-22.173202
69.536108
-22.135914
-22.190093
-22.121380
-22.086017
73.398040
-22.011627
-21.939245
76.373275
-21.874642
-21.782607
79.630202
-21.702720
-21.562896
82.935251
-21.411218
87.174856
-21.141056
92.625077
-20.841145
95.173950
-20.505754
97.710388
-20.154230
101.513538
-19.765743
104.624501
-19.405372
107.699388
-18.901988
111.334984
-18.447683
113.839498
-17.978560
116.733082
-17.339996
119.670480
-16.954573
122.516683
-16.561117
125.346131
127.968431
130.096263
-15.580346
132.721831
131.415722
-14.906037
135.398568
134.028170
-14.305753
136.544549
137.828294
-13.744172
138.966723
140.247733
-13.267525
141.279701
142.532300
-12.609396
143.588105
144.776899
-12.049017
145.742996
147.109493
-11.473124
148.479512
-10.952556
150.320736
-10.382505
152.201605
-9.799167
153.940200
-9.339024
155.618229
-8.822221
157.144047
-8.341374
158.517852
-7.864883
159.674024
-7.419348
161.118115
-6.947830
162.218772
-6.557270
-6.176800
163.207157
-6.030525
-5.834430
164.050012
-5.624847
-5.413123
164.778942
-5.239218
-5.081114
165.520024
-4.914485
-4.720617
165.876027
-4.410407
-4.554101
166.195811
-4.313208
-4.132399
166.478940
-3.855425
-4.012141
166.547329
-3.635706
166.522324
-3.461803
166.407962
-3.272757
166.135248
-3.026658
165.727998
-2.943926
165.232494
-2.787169
164.618814
-2.682837
163.671725
-2.592680
162.886938
-2.538131
161.958030
-2.509222
160.830168
-2.476042
159.638149
-2.498756
158.335661
-2.537923
156.962930
155.996146
-2.615111
154.850928
154.127973
-2.662676
153.142814
152.381295
-2.777807
150.627983
151.402801
-2.880401
149.576679
148.630274
-3.000018
146.672177
147.636381
-3.209580
145.518645
144.523792
-3.421568
142.242378
143.330586
-3.588478
140.535406
-3.808101
138.299043
-4.038011
135.861776
-4.340319
133.409984
-4.561283
130.860654
-4.829328
128.251327
-5.123126
125.645690
-5.456888
123.432005
-5.726628
120.136926
-6.045843
117.322699
-6.388298
-6.615490
114.472173
-6.860944
-6.990049
111.573945
-7.211718
-7.379824
108.668504
-7.549051
-7.685153
105.083681
-7.922183
-8.085569
102.648041
-8.285069
-8.442389
99.742118
-8.666985
-8.826982
96.732919
-9.024294
-9.222309
93.836545
-9.491777
91.410283
-9.864067
87.073839
-10.235615
84.653285
-10.613197
82.239689
-10.924541
78.662669
-11.299660
75.631791
-11.591182
72.655920
-12.008932
69.031744
-12.356896
66.614018
-12.666344
63.794583
-13.075722
60.892657
-13.323667
58.056205
-13.564016
55.310827
-13.937642
52.626165
-14.108399
50.667959
49.059762
-14.463639
47.819668
46.314941
-14.631606
45.011809
43.710818
-14.822422
42.426093
41.169511
-15.002805
39.849103
38.643347
-15.174754
37.235433
36.061350
-15.358181
34.806878
33.675555
-15.478886
32.311135
-15.577938
30.532305
-15.653930
28.320172
-15.723242
26.116287
-15.730034
23.910836
-15.727506
21.772128
-15.667553
19.702078
-15.627940
17.712245
-15.491346
16.162931
-15.379973
13.850909
-15.192558
12.030229
-15.036583
-14.916393
10.267458
-14.795768
-14.666834
8.574209
-14.495844
-14.340552
6.923142
-14.158910
-14.017035
5.043786
-13.614439
-13.818697
3.811330
-13.424579
-13.180675
2.427710
-12.697356
-12.961446
1.066043
-12.419894
-0.079434
-12.016705
-1.523080
-11.442900
-2.705326
-10.866201
-3.873927
-10.150455
-4.904847
-9.442628
-5.943342
-8.663913
-7.948251
-6.889891
SCALARS strain_2 float
LOOKUP_TABLE default
0.472285
0.340319
-0.240244
1.180046
-1.011460
1.878892
-1.834004
2.435524
-2.720837