# vtk DataFile Version 2.0
Generated volume Mesh
ASCII
DATASET UNSTRUCTURED_GRID
POINTS 1240 float
-0.212153 -0.150304 0.000000
-0.206421 -0.141033 0.000000
-0.215099 -0.146056 0.000000
-0.209122 -0.154492 0.000000
-0.217961 -0.141751 0.000000
-0.206009 -0.158620 0.000000
-0.220736 -0.137389 0.000000
-0.202815 -0.162684 0.000000
-0.223424 -0.132973 0.000000
-0.226023 -0.128505 0.000000
-0.199540 -0.166684 0.000000
-0.228534 -0.123985 0.000000
-0.196187 -0.170619 0.000000
-0.230953 -0.119417 0.000000
-0.192756 -0.174486 0.000000
-0.233282 -0.114802 0.000000
-0.189249 -0.178283 0.000000
-0.235519 -0.110141 0.000000
-0.185666 -0.182011 0.000000
-0.237662 -0.105436 0.000000
-0.182011 -0.185666 0.000000
-0.239711 -0.100690 0.000000
-0.178283 -0.189249 0.000000
-0.241666 -0.095904 0.000000
-0.174486 -0.192756 0.000000
-0.243525 -0.091081 0.000000
-0.170619 -0.196187 0.000000
-0.245288 -0.086221 0.000000
-0.166684 -0.199540 0.000000
-0.246953 -0.081327 0.000000
-0.162684 -0.202815 0.000000
-0.248521 -0.076401 0.000000
-0.158620 -0.206009 0.000000
-0.249991 -0.071445 0.000000
-0.154492 -0.209122 0.000000
-0.251363 -0.066459 0.000000
-0.150304 -0.212153 0.000000
-0.252634 -0.061448 0.000000
-0.146056 -0.215099 0.000000
-0.253806 -0.056412 0.000000
-0.141751 -0.217961 0.000000
-0.137389 -0.220736 0.000000
-0.254878 -0.051354 0.000000
-0.132973 -0.223424 0.000000
-0.255849 -0.046275 0.000000
-0.128505 -0.226023 0.000000
-0.256718 -0.041179 0.000000
-0.123985 -0.228534 0.000000
-0.257486 -0.036067 0.000000
-0.119417 -0.230953 0.000000
-0.258152 -0.030940 0.000000
-0.114802 -0.233282 0.000000
-0.258717 -0.025802 0.000000
-0.110141 -0.235519 0.000000
-0.259178 -0.020654 0.000000
-0.105436 -0.237662 0.000000
-0.259538 -0.015498 0.000000
-0.100690 -0.239711 0.000000
-0.259794 -0.010336 0.000000
-0.095904 -0.241666 0.000000
-0.259949 -0.005169 0.000000
-0.091081 -0.243525 0.000000
-0.260000 0.000000 0.000000
-0.259949 0.005169 0.000000
-0.086221 -0.245288 0.000000
-0.259794 0.010336 0.000000
-0.081327 -0.246953 0.000000
-0.259538 0.015498 0.000000
-0.076401 -0.248521 0.000000
-0.259178 0.020654 0.000000
-0.071445 -0.249991 0.000000
-0.258717 0.025802 0.000000
-0.066459 -0.251363 0.000000
-0.258152 0.030940 0.000000
-0.061448 -0.252634 0.000000
-0.257486 0.036067 0.000000
-0.056412 -0.253806 0.000000
-0.256718 0.041179 0.000000
-0.051354 -0.254878 0.000000
-0.255849 0.046275 0.000000
-0.046275 -0.255849 0.000000
-0.254878 0.051354 0.000000
-0.041179 -0.256718 0.000000
-0.253806 0.056412 0.000000
-0.036067 -0.257486 0.000000
-0.252634 0.061448 0.000000
-0.030940 -0.258152 0.000000
-0.251363 0.066459 0.000000
-0.025802 -0.258717 0.000000
-0.249991 0.071445 0.000000
-0.020654 -0.259178 0.000000
-0.248521 0.076401 0.000000
-0.015498 -0.259538 0.000000
-0.010336 -0.259794 0.000000
-0.246953 0.081327 0.000000
-0.005169 -0.259949 0.000000
-0.245288 0.086221 0.000000
0.000000 -0.260000 0.000000
-0.243525 0.091081 0.000000
0.005169 -0.259949 0.000000
-0.241666 0.095904 0.000000
0.010336 -0.259794 0.000000
-0.239711 0.100690 0.000000
0.015498 -0.259538 0.000000
-0.237662 0.105436 0.000000
0.020654 -0.259178 0.000000
-0.235519 0.110141 0.000000
0.025802 -0.258717 0.000000
-0.233282 0.114802 0.000000
0.030940 -0.258152 0.000000
-0.230953 0.119417 0.000000
0.036067 -0.257486 0.000000
-0.228534 0.123985 0.000000
0.041179 -0.256718 0.000000
-0.226023 0.128505 0.000000
-0.223424 0.132973 0.000000
0.046275 -0.255849 0.000000
-0.220736 0.137389 0.000000
0.051354 -0.254878 0.000000
-0.217961 0.141751 0.000000
0.056412 -0.253806 0.000000
-0.215099 0.146056 0.000000
0.061448 -0.252634 0.000000
-0.212153 0.150304 0.000000
0.066459 -0.251363 0.000000
-0.209122 0.154492 0.000000
0.071445 -0.249991 0.000000
-0.206009 0.158620 0.000000
0.076401 -0.248521 0.000000
-0.202815 0.162684 0.000000
0.081327 -0.246953 0.000000
-0.199540 0.166684 0.000000
0.086221 -0.245288 0.000000
-0.196187 0.170619 0.000000
0.091081 -0.243525 0.000000
-0.192756 0.174486 0.000000
0.095904 -0.241666 0.000000
-0.189249 0.178283 0.000000
0.100690 -0.239711 0.000000
-0.185666 0.182011 0.000000
0.105436 -0.237662 0.000000
-0.182011 0.185666 0.000000
0.110141 -0.235519 0.000000
-0.178283 0.189249 0.000000
0.114802 -0.233282 0.000000
-0.174486 0.192756 0.000000
0.119417 -0.230953 0.000000
0.123985 -0.228534 0.000000
-0.170619 0.196187 0.000000
0.128505 -0.226023 0.000000
-0.166684 0.199540 0.000000
0.132973 -0.223424 0.000000
-0.162684 0.202815 0.000000
0.137389 -0.220736 0.000000
-0.158620 0.206009 0.000000
0.141751 -0.217961 0.000000
-0.154492 0.209122 0.000000
0.146056 -0.215099 0.000000
-0.150304 0.212153 0.000000
0.150304 -0.212153 0.000000
-0.146056 0.215099 0.000000
0.154492 -0.209122 0.000000
-0.141751 0.217961 0.000000
0.158620 -0.206009 0.000000
-0.137389 0.220736 0.000000
0.162684 -0.202815 0.000000
-0.132973 0.223424 0.000000
-0.128505 0.226023 0.000000
0.166684 -0.199540 0.000000
-0.123985 0.228534 0.000000
0.170619 -0.196187 0.000000
-0.119417 0.230953 0.000000
0.174486 -0.192756 0.000000
-0.114802 0.233282 0.000000
0.178283 -0.189249 0.000000
-0.110141 0.235519 0.000000
0.182011 -0.185666 0.000000
-0.105436 0.237662 0.000000
0.185666 -0.182011 0.000000
-0.100690 0.239711 0.000000
0.189249 -0.178283 0.000000
-0.095904 0.241666 0.000000
0.192756 -0.174486 0.000000
-0.091081 0.243525 0.000000
0.196187 -0.170619 0.000000
-0.086221 0.245288 0.000000
0.199540 -0.166684 0.000000
-0.081327 0.246953 0.000000
0.202815 -0.162684 0.000000
-0.076401 0.248521 0.000000
0.206009 -0.158620 0.000000
-0.071445 0.249991 0.000000
0.209122 -0.154492 0.000000
-0.066459 0.251363 0.000000
0.212153 -0.150304 0.000000
-0.061448 0.252634 0.000000
0.215099 -0.146056 0.000000
-0.056412 0.253806 0.000000
0.217961 -0.141751 0.000000
0.220736 -0.137389 0.000000
-0.051354 0.254878 0.000000
0.223424 -0.132973 0.000000
-0.046275 0.255849 0.000000
0.226023 -0.128505 0.000000
-0.041179 0.256718 0.000000
0.228534 -0.123985 0.000000
-0.036067 0.257486 0.000000
0.230953 -0.119417 0.000000
-0.030940 0.258152 0.000000
0.233282 -0.114802 0.000000
-0.025802 0.258717 0.000000
0.235519 -0.110141 0.000000
-0.020654 0.259178 0.000000
0.237662 -0.105436 0.000000
-0.015498 0.259538 0.000000
0.239711 -0.100690 0.000000
-0.010336 0.259794 0.000000
0.241666 -0.095904 0.000000
-0.005169 0.259949 0.000000
0.243525 -0.091081 0.000000
0.000000 0.260000 0.000000
0.245288 -0.086221 0.000000
0.005169 0.259949 0.000000
0.246953 -0.081327 0.000000
0.010336 0.259794 0.000000
0.248521 -0.076401 0.000000
0.015498 0.259538 0.000000
0.249991 -0.071445 0.000000
0.020654 0.259178 0.000000
0.251363 -0.066459 0.000000
0.025802 0.258717 0.000000
0.252634 -0.061448 0.000000
0.030940 0.258152 0.000000
0.253806 -0.056412 0.000000
0.036067 0.257486 0.000000
0.254878 -0.051354 0.000000
0.041179 0.256718 0.000000
0.255849 -0.046275 0.000000
0.046275 0.255849 0.000000
0.256718 -0.041179 0.000000
0.051354 0.254878 0.000000
0.257486 -0.036067 0.000000
0.056412 0.253806 0.000000
0.258152 -0.030940 0.000000
0.061448 0.252634 0.000000
0.258717 -0.025802 0.000000
0.066459 0.251363 0.000000
0.259178 -0.020654 0.000000
0.071445 0.249991 0.000000
0.259538 -0.015498 0.000000
0.076401 0.248521 0.000000
0.259794 -0.010336 0.000000
0.081327 0.246953 0.000000
0.259949 -0.005169 0.000000
0.086221 0.245288 0.000000
0.260000 0.000000 0.000000
0.091081 0.243525 0.000000
0.259949 0.005169 0.000000
0.095904 0.241666 0.000000
0.259794 0.010336 0.000000
0.100690 0.239711 0.000000
0.259538 0.015498 0.000000
0.105436 0.237662 0.000000
0.259178 0.020654 0.000000
0.110141 0.235519 0.000000
0.258717 0.025802 0.000000
0.114802 0.233282 0.000000
0.258152 0.030940 0.000000
0.119417 0.230953 0.000000
0.257486 0.036067 0.000000
0.123985 0.228534 0.000000
0.256718 0.041179 0.000000
0.128505 0.226023 0.000000
0.255849 0.046275 0.000000
0.132973 0.223424 0.000000
0.254878 0.051354 0.000000
0.137389 0.220736 0.000000
0.253806 0.056412 0.000000
0.141751 0.217961 0.000000
0.252634 0.061448 0.000000
0.146056 0.215099 0.000000
0.251363 0.066459 0.000000
0.150304 0.212153 0.000000
0.249991 0.071445 0.000000
0.154492 0.209122 0.000000
0.248521 0.076401 0.000000
0.158620 0.206009 0.000000
0.246953 0.081327 0.000000
0.162684 0.202815 0.000000
0.245288 0.086221 0.000000
0.166684 0.199540 0.000000
0.243525 0.091081 0.000000
0.170619 0.196187 0.000000
0.241666 0.095904 0.000000
0.174486 0.192756 0.000000
0.239711 0.100690 0.000000
0.178283 0.189249 0.000000
0.237662 0.105436 0.000000
0.182011 0.185666 0.000000
0.235519 0.110141 0.000000
0.185666 0.182011 0.000000
0.233282 0.114802 0.000000
0.189249 0.178283 0.000000
0.230953 0.119417 0.000000
0.192756 0.174486 0.000000
0.228534 0.123985 0.000000
0.196187 0.170619 0.000000
0.226023 0.128505 0.000000
0.199540 0.166684 0.000000
0.223424 0.132973 0.000000
0.202815 0.162684 0.000000
0.220736 0.137389 0.000000
0.206009 0.158620 0.000000
0.217961 0.141751 0.000000
0.209122 0.154492 0.000000
0.215099 0.146056 0.000000
0.212153 0.150304 0.000000
-0.203462 -0.145269 0.000000
-0.209292 -0.136737 0.000000
-0.200416 -0.149443 0.000000
-0.212073 -0.132382 0.000000
-0.197285 -0.153553 0.000000
-0.214764 -0.127971 0.000000
-0.194070 -0.157598 0.000000
-0.217362 -0.123505 0.000000
-0.190771 -0.161575 0.000000
-0.219868 -0.118987 0.000000
-0.187391 -0.165483 0.000000
-0.222281 -0.114417 0.000000
-0.183931 -0.169320 0.000000
-0.224598 -0.109799 0.000000
-0.180392 -0.173086 0.000000
-0.226819 -0.105134 0.000000
-0.176777 -0.176777 0.000000
-0.228943 -0.100424 0.000000
-0.173086 -0.180392 0.000000
-0.230970 -0.095671 0.000000
-0.169320 -0.183931 0.000000
-0.232898 -0.090877 0.000000
-0.165483 -0.187391 0.000000
-0.234726 -0.086044 0.000000
-0.161575 -0.190771 0.000000
-0.236454 -0.081175 0.000000
-0.157598 -0.194070 0.000000
-0.238081 -0.076271 0.000000
-0.153553 -0.197285 0.000000
-0.239607 -0.071334 0.000000
-0.149443 -0.200416 0.000000
-0.241030 -0.066366 0.000000
-0.145269 -0.203462 0.000000
-0.242350 -0.061370 0.000000
-0.141033 -0.206421 0.000000
[...]
POINT_DATA 1240
SCALARS u1 float
LOOKUP_TABLE default
-5e-05
-5e-05
-5e-05
-6e-05
-5e-05
-6e-05
-4e-05
-7e-05
-4e-05
-4e-05
-7e-05
-4e-05
-7e-05
-4e-05
-7e-05
-5e-05
-7e-05
-5e-05
-7e-05
-5e-05
-7e-05
-5e-05
-7e-05
-6e-05
-6e-05
-6e-05
-6e-05
-7e-05
-5e-05
-7e-05
-5e-05
-8e-05
-4e-05
-9e-05
-4e-05
-0.0001
-3e-05
-0.0001
-3e-05
-0.0001
-2e-05
-2e-05
-0.0001
-2e-05
-0.0001
-2e-05
-0.0001
-2e-05
-0.0002
-2e-05
-0.0002
-2e-05
-0.0002
-2e-05
-0.0002
-2e-05
-0.0002
-2e-05
-0.0002
-2e-05
-0.0002
-2e-05
-0.0002
-0.0002
-2e-05
-0.0002
-2e-05
-0.0002
-2e-05
-0.0002
-3e-05
-0.0002
-3e-05
-0.0002
-3e-05
-0.0002
-3e-05
-0.0002
-3e-05
-0.0001
-3e-05
-0.0001
-3e-05
-0.0001
-3e-05
-0.0001
-3e-05
-0.0001
-3e-05
-9e-05
-2e-05
-8e-05
-2e-05
-2e-05
-8e-05
-2e-05
-7e-05
-1e-05
-7e-05
-1e-05
-6e-05
-9e-06
-6e-05
-7e-06
-6e-05
-4e-06
-5e-05
-2e-06
-5e-05
-5e-07
-5e-05
9e-07
-5e-05
2e-06
-5e-05
-5e-05
2e-06
-5e-05
2e-06
-5e-05
1e-06
-6e-05
-3e-07
-6e-05
-2e-06
-7e-05
-4e-06
-7e-05
-6e-06
-8e-05
-7e-06
-8e-05
-9e-06
-8e-05
-1e-05
-8e-05
-1e-05
-8e-05
-1e-05
-8e-05
-1e-05
-8e-05
-1e-05
-8e-05
-1e-05
-7e-05
-1e-05
-1e-05
-7e-05
-1e-05
-6e-05
-1e-05
-6e-05
-9e-06
-5e-05
-7e-06
-5e-05
-4e-06
-5e-05
-9e-07
-4e-05
3e-06
-4e-05
8e-06
-4e-05
1e-05
-4e-05
-3e-05
2e-05
-3e-05
2e-05
-3e-05
3e-05
-3e-05
3e-05
-3e-05
4e-05
-3e-05
4e-05
-3e-05
4e-05
-3e-05
4e-05
-4e-05
4e-05
-4e-05
3e-05
-4e-05
3e-05
-4e-05
3e-05
-4e-05
2e-05
-4e-05
2e-05
-5e-05
1e-05
-5e-05
9e-06
6e-06
-5e-05
4e-06
-5e-05
4e-06
-5e-05
4e-06
-5e-05
5e-06
-5e-05
7e-06
-4e-05
9e-06
-4e-05
1e-05
-4e-05
1e-05
-4e-05
2e-05
-3e-05
2e-05
-3e-05
3e-05
-3e-05
3e-05
-3e-05
4e-05
-2e-05
5e-05
-2e-05
5e-05
-2e-05
6e-05
-2e-05
7e-05
-2e-05
9e-05
-1e-05
0.0001
-1e-05
0.0001
-1e-05
0.0001
-2e-05
0.0001
-2e-05
0.0001
-2e-05
0.0001
-2e-05
0.0001
-2e-05
0.0001
-2e-05
0.0001
-2e-05
0.0001
-3e-05
0.0001
-3e-05
0.0001
-3e-05
0.0001
-3e-05
0.0001
-3e-05
0.0001
-3e-05
0.0001
-3e-05
0.0001
-3e-05
0.0001
-3e-05
9e-05
-2e-05
8e-05
-2e-05
7e-05
-2e-05
6e-05
-2e-05
5e-05
-1e-05
4e-05
-1e-05
3e-05
-5e-06
3e-05
4e-07
2e-05
6e-06
2e-05
1e-05
1e-05
2e-05
7e-06
2e-05
4e-06
2e-05
2e-06
3e-05
-8e-07
3e-05
-3e-06
3e-05
-4e-06
3e-05
-4e-06
2e-05
-4e-06
2e-05
-3e-06
2e-05
-2e-07
1e-05
3e-06
7e-06
-5e-05
-4e-05
-5e-05
-4e-05
-6e-05
-4e-05
-6e-05
-4e-05
-6e-05
-4e-05
-7e-05
-5e-05
-7e-05
-5e-05
-7e-05
-5e-05
-7e-05
-5e-05
-7e-05
-6e-05
-7e-05
-6e-05
-7e-05
-7e-05
-6e-05
-7e-05
-6e-05
-8e-05
-5e-05
-9e-05
-5e-05
-0.0001
-4e-05
-0.0001
-4e-05
-0.0001
-3e-05
-0.0001
-3e-05
-0.0001
-2e-05
-0.0002
-2e-05
-0.0002
-2e-05
-0.0002
-2e-05
-0.0002
-2e-05
-0.0002
-2e-05
-0.0002
-1e-05
-0.0002
-1e-05
-0.0002
-1e-05
-0.0002
-1e-05
-0.0002
-1e-05
-0.0002
-1e-05
-0.0002
-1e-05
-0.0002
-1e-05
-0.0002
-1e-05
-0.0002
-1e-05
-0.0002
-1e-05
-0.0002
-1e-05
-0.0001
-1e-05
-0.0001
-1e-05
-0.0001
-1e-05
-0.0001
-2e-05
-0.0001
-2e-05
-9e-05
-2e-05
-9e-05
-2e-05
-8e-05
-2e-05
-7e-05
-1e-05
-7e-05
-1e-05
-6e-05
-1e-05
-6e-05
-1e-05
-6e-05
-1e-05
-6e-05
-1e-05
-5e-05
-2e-05
-5e-05
-2e-05
-5e-05
-2e-05
-5e-05
-2e-05
-5e-05
-2e-05
-5e-05
-2e-05
-5e-05
-2e-05
-6e-05
-2e-05
-6e-05
-2e-05
-7e-05
-2e-05
-7e-05
-2e-05
-7e-05
-2e-05
-8e-05
-2e-05
-8e-05
-2e-05
-8e-05
-2e-05
-8e-05
-2e-05
-8e-05
-1e-05
-8e-05
-1e-05
-8e-05
-1e-05
-7e-05
-1e-05
-7e-05
-7e-06
-7e-05
-4e-06
-6e-05
-2e-07
-6e-05
4e-06
-5e-05
9e-06
-5e-05
1e-05
-4e-05
2e-05
-4e-05
2e-05
-4e-05
3e-05
-3e-05
3e-05
-3e-05
3e-05
-3e-05
4e-05
-3e-05
4e-05
-3e-05
4e-05
-3e-05
3e-05
-3e-05
3e-05
-3e-05
3e-05
-3e-05
2e-05
-3e-05
2e-05
-3e-05
2e-05
-3e-05
1e-05
-3e-05
9e-06
-3e-05
6e-06
-3e-05
4e-06
-3e-05
4e-06
-3e-05
4e-06
-3e-05
5e-06
-3e-05
7e-06
-3e-05
9e-06
-3e-05
1e-05
-3e-05
1e-05
-3e-05
2e-05
-3e-05
2e-05
-3e-05
3e-05
-3e-05
3e-05
-3e-05
4e-05
-3e-05
5e-05
-3e-05
6e-05
-3e-05
7e-05
-3e-05
8e-05
-3e-05
9e-05
-3e-05
0.0001
-3e-05
0.0001
-3e-05
0.0001
-3e-05
0.0001
-3e-05
0.0001
-4e-05
0.0001
-3e-05
0.0001
-3e-05
0.0001
-3e-05
0.0001
-3e-05
0.0001
-3e-05
0.0001
-3e-05
0.0001
-3e-05
0.0001
-3e-05
0.0001
-3e-05
0.0001
-3e-05
0.0001
-3e-05
0.0001
-2e-05
0.0001
-2e-05
9e-05
-2e-05
8e-05
-1e-05
7e-05
-9e-06
6e-05
-4e-06
5e-05
1e-06
4e-05
7e-06
3e-05
1e-05
3e-05
2e-05
2e-05
2e-05
2e-05
2e-05
1e-05
3e-05
8e-06
3e-05
5e-06
3e-05
2e-06
2e-05
-2e-07
2e-05
-2e-06
2e-05
-4e-06
1e-05
-4e-06
1e-05
-4e-06
6e-06
-3e-06
-5e-07
3e-06
-5e-05
-5e-05
-5e-05
-5e-05
-5e-05
-5e-05
-6e-05
-4e-05
-4e-05
-6e-05
-6e-05
-4e-05
-4e-05
-6e-05
-7e-05
-4e-05
-4e-05
-4e-05
-6e-05
-7e-05
-4e-05
-4e-05
-7e-05
-7e-05
-4e-05
-4e-05
-7e-05
-7e-05
-5e-05
-5e-05
-7e-05
-7e-05
-5e-05
-5e-05
-7e-05
-7e-05
-5e-05
-5e-05
-7e-05
-7e-05
-5e-05
-6e-05
-7e-05
-7e-05
-6e-05
-6e-05
-7e-05
-6e-05
-6e-05
-6e-05
-6e-05
-6e-05
-7e-05
-7e-05
-6e-05
-5e-05
-7e-05
-8e-05
-5e-05
-5e-05
-8e-05
-8e-05
-5e-05
-4e-05
-9e-05
-9e-05
-4e-05
-4e-05
-0.0001
-0.0001
-4e-05
-3e-05
-0.0001
-0.0001
-3e-05
-3e-05
-0.0001
-0.0001
-3e-05
-3e-05
-2e-05
-0.0001
-0.0001
-2e-05
-2e-05
-0.0001
-0.0001
-2e-05
-2e-05
-0.0002
-0.0002
-2e-05
-2e-05
-0.0002
-0.0002
-2e-05
-2e-05
-0.0002
-0.0002
-2e-05
-2e-05
-0.0002
-0.0002
-2e-05
-2e-05
-0.0002
-0.0002
-2e-05
-2e-05
-0.0002
-0.0002
-2e-05
-2e-05
-0.0002
-0.0002
-2e-05
-2e-05
-0.0002
-0.0002
-2e-05
-2e-05
-0.0002
-0.0002
-0.0002
-1e-05
-2e-05
-0.0002
-0.0002
-2e-05
-2e-05
-0.0002
-0.0002
-2e-05
-2e-05
-0.0002
-0.0002
-2e-05
-2e-05
-0.0002
-0.0002
-2e-05
-2e-05
-0.0002
-0.0002
-2e-05
-2e-05
-0.0002
-0.0002
-2e-05
-2e-05
-0.0002
-0.0001
-2e-05
-3e-05
-0.0001
-0.0001
-2e-05
-3e-05
-0.0001
-0.0001
-2e-05
-3e-05
-0.0001
-0.0001
-2e-05
-2e-05
-0.0001
-0.0001
-2e-05
-2e-05
-0.0001
-0.0001
-2e-05
-2e-05
-0.0001
-9e-05
-2e-05
-2e-05
-9e-05
-8e-05
-2e-05
-2e-05
-2e-05
-8e-05
-8e-05
-2e-05
-2e-05
-7e-05
-7e-05
-2e-05
-1e-05
-7e-05
-7e-05
-1e-05
-1e-05
-6e-05
-6e-05
-1e-05
-1e-05
-6e-05
-6e-05
-1e-05
-9e-06
-6e-05
-6e-05
-1e-05
-7e-06
-6e-05
-5e-05
-1e-05
-6e-06
-5e-05
-5e-05
-1e-05
-5e-06
-5e-05
-5e-05
-1e-05
-4e-06
-5e-05
-5e-05
-1e-05
-4e-06
-5e-05
-5e-05
-5e-05
-1e-05
-5e-06
-5e-05
-5e-05
-1e-05
-5e-06
-5e-05
-5e-05
-1e-05
-6e-06
-5e-05
-6e-05
-1e-05
-7e-06
-6e-05
-6e-05
-1e-05
-9e-06
-6e-05
-7e-05
-1e-05
-1e-05
-7e-05
-7e-05
-2e-05
-1e-05
-7e-05
-8e-05
-2e-05
-1e-05
-8e-05
-8e-05
-2e-05
-1e-05
-8e-05
-8e-05
-2e-05
-1e-05
-8e-05
-8e-05
-2e-05
-1e-05
-8e-05
-8e-05
-2e-05
-1e-05
-8e-05
-8e-05
-1e-05
-1e-05
-8e-05
-8e-05
-1e-05
-1e-05
-8e-05
-8e-05
-1e-05
-1e-05
-8e-05
-7e-05
-1e-05
-1e-05
-1e-05
-7e-05
-7e-05
-1e-05
-1e-05
-7e-05
-7e-05
-9e-06
-9e-06
-7e-05
-6e-05
-7e-06
-7e-06
-6e-05
-5e-05
-4e-06
-4e-06
-5e-05
-5e-05
-2e-07
-4e-07
-5e-05
-5e-05
4e-06
4e-06
-5e-05
-4e-05
9e-06
9e-06
-4e-05
-4e-05
1e-05
1e-05
-4e-05
-4e-05
2e-05
2e-05
-4e-05
-4e-05
-3e-05
2e-05
2e-05
-3e-05
-3e-05
3e-05
3e-05
-3e-05
-3e-05
3e-05
3e-05
-3e-05
-3e-05
3e-05
4e-05
-3e-05
-3e-05
4e-05
4e-05
-3e-05
-3e-05
4e-05
4e-05
-3e-05
-3e-05
4e-05
4e-05
-3e-05
-3e-05
4e-05
4e-05
-3e-05
-3e-05
3e-05
3e-05
-3e-05
-3e-05
3e-05
3e-05
-3e-05
-3e-05
3e-05
3e-05
-3e-05
-4e-05
2e-05
2e-05
-3e-05
-4e-05
2e-05
2e-05
-3e-05
-4e-05
1e-05
1e-05
-3e-05
-4e-05
9e-06
9e-06
-3e-05
-4e-05
6e-06
6e-06
5e-06
-3e-05
-4e-05
4e-06
4e-06
-4e-05
-4e-05
4e-06
4e-06
-4e-05
-4e-05
4e-06
5e-06
-4e-05
-4e-05
6e-06
6e-06
-4e-05
-4e-05
8e-06
8e-06
-4e-05
-4e-05
1e-05
1e-05
-3e-05
-4e-05
1e-05
1e-05
-3e-05
-4e-05
2e-05
2e-05
-3e-05
-3e-05
2e-05
2e-05
-3e-05
-3e-05
2e-05
2e-05
-3e-05
-3e-05
-3e-05
3e-05
3e-05
-3e-05
-3e-05
3e-05
4e-05
-3e-05
-3e-05
4e-05
4e-05
-3e-05
-2e-05
5e-05
5e-05
-3e-05
-2e-05
6e-05
6e-05
-3e-05
-2e-05
7e-05
7e-05
-3e-05
-2e-05
8e-05
8e-05
-3e-05
-2e-05
9e-05
9e-05
-3e-05
-2e-05
0.0001
0.0001
-3e-05
-2e-05
0.0001
0.0001
-3e-05
-2e-05
0.0001
0.0001
-3e-05
-2e-05
0.0001
0.0001
-3e-05
-2e-05
0.0001
0.0001
-3e-05
-3e-05
0.0001
0.0001
-3e-05
-3e-05
0.0001
0.0001
0.0001
-3e-05
-3e-05
0.0001
0.0001
-3e-05
-3e-05
0.0001
0.0001
-3e-05
-3e-05
0.0001
0.0001
-3e-05
-3e-05
0.0001
0.0001
-3e-05
-3e-05
0.0001
0.0001
-3e-05
-3e-05
0.0001
0.0001
-3e-05
-3e-05
0.0001
0.0001
-3e-05
-3e-05
0.0001
0.0001
-3e-05
-3e-05
0.0001
0.0001
-3e-05
-3e-05
0.0001
0.0001
-2e-05
-2e-05
0.0001
9e-05
-2e-05
-2e-05
9e-05
8e-05
-2e-05
-2e-05
8e-05
7e-05
-1e-05
-2e-05
6e-05
6e-05
-9e-06
-1e-05
5e-05
5e-05
-4e-06
-1e-05
4e-05
4e-05
1e-06
-5e-06
4e-05
3e-05
7e-06
7e-07
3e-05
2e-05
1e-05
6e-06
2e-05
2e-05
2e-05
1e-05
2e-05
1e-05
2e-05
2e-05
1e-05
1e-05
2e-05
2e-05
9e-06
6e-06
3e-05
2e-05
6e-06
3e-06
3e-05
3e-05
3e-06
9e-07
3e-05
3e-05
3e-07
-1e-06
2e-05
3e-05
-2e-06
-3e-06
2e-05
2e-05
-4e-06
-4e-06
2e-05
2e-05
-4e-06
-4e-06
1e-05
2e-05
-4e-06
-4e-06
1e-05
2e-05
-3e-06
-3e-06
6e-06
-4e-07
3e-06
1e-05
-4e-07
7e-06
3e-06
SCALARS u2 float
LOOKUP_TABLE default
-1e-05
-2e-05
-9e-06
-2e-05
-6e-06
-2e-05
-4e-06
-3e-05
-3e-06
-2e-06
-3e-05
-2e-06
-4e-05
-2e-06
-4e-05
-1e-06
-5e-05
-1e-06
-5e-05
-1e-06
-5e-05
-2e-06
-5e-05
-2e-06
-5e-05
-3e-06
-5e-05
-4e-06
-5e-05
-6e-06
-4e-05
-8e-06
-4e-05
-1e-05
-3e-05
-1e-05
-3e-05
-1e-05
-3e-05
-1e-05
-2e-05
-2e-05
-2e-05
-2e-05
-2e-05
-2e-05
-2e-05
-2e-05
-1e-05
-2e-05
-1e-05
-2e-05
-1e-05
-2e-05
-9e-06
-2e-05
-7e-06
-3e-05
-4e-06
-3e-05
-2e-06
-3e-05
1e-06
4e-06
-4e-05
7e-06
-4e-05
9e-06
-5e-05
1e-05
-6e-05
1e-05
-7e-05
2e-05
-8e-05
2e-05
-9e-05
2e-05
-0.0001
2e-05
-0.0001
2e-05
-0.0001
2e-05
-0.0001
2e-05
-0.0001
1e-05
-0.0001
1e-05
-0.0001
1e-05
-0.0002
-0.0002
9e-06
-0.0002
8e-06
-0.0002
7e-06
-0.0002
6e-06
-0.0002
6e-06
-0.0002
5e-06
-0.0001
5e-06
-0.0001
6e-06
-0.0001
6e-06
-0.0001
6e-06
-0.0001
7e-06
8e-06
-0.0001
9e-06
-0.0001
1e-05
-8e-05
1e-05
-7e-05
2e-05
-6e-05
2e-05
-5e-05
3e-05
-5e-05
3e-05
-4e-05
4e-05
-3e-05
4e-05
-3e-05
5e-05
-2e-05
5e-05
-2e-05
6e-05
-2e-05
6e-05
-1e-05
6e-05
-1e-05
6e-05
-1e-05
-9e-06
6e-05
-9e-06
6e-05
-9e-06
5e-05
-1e-05
5e-05
-1e-05
4e-05
-2e-05
4e-05
-2e-05
4e-05
-2e-05
3e-05
-3e-05
3e-05
-3e-05
3e-05
3e-05
-4e-05
3e-05
-4e-05
3e-05
-4e-05
3e-05
-4e-05
3e-05
-4e-05
4e-05
-4e-05
4e-05
-3e-05
4e-05
-3e-05
5e-05
-2e-05
5e-05
-2e-05
6e-05
-1e-05
7e-05
-8e-06
7e-05
-3e-06
8e-05
1e-06
9e-05
5e-06
0.0001
8e-06
1e-05
0.0001
1e-05
0.0001
1e-05
0.0001
1e-05
0.0001
1e-05
0.0002
1e-05
0.0002
1e-05
0.0002
1e-05
0.0002
1e-05
0.0002
1e-05
0.0002
1e-05
0.0002
1e-05
0.0002
1e-05
0.0002
8e-06
0.0002
6e-06
0.0002
5e-06
0.0002
3e-06
0.0002
2e-06
0.0001
1e-06
0.0001
9e-07
0.0001
1e-06
0.0001
2e-06
0.0001
4e-06
0.0001
5e-06
9e-05
8e-06
8e-05
1e-05
7e-05
1e-05
6e-05
1e-05
6e-05
2e-05
5e-05
2e-05
5e-05
2e-05
5e-05
3e-05
4e-05
3e-05
4e-05
3e-05
4e-05
3e-05
4e-05
3e-05
4e-05
3e-05
4e-05
3e-05
4e-05
3e-05
4e-05
3e-05
4e-05
3e-05
4e-05
3e-05
5e-05
3e-05
5e-05
3e-05
6e-05
3e-05
6e-05
2e-05
7e-05
2e-05
7e-05
2e-05
7e-05
2e-05
7e-05
2e-05
7e-05
2e-05
7e-05
2e-05
6e-05
2e-05
6e-05
2e-05
6e-05
2e-05
5e-05
2e-05
5e-05
2e-05
4e-05
3e-05
4e-05
3e-05
3e-05
-2e-05
-1e-05
-3e-05
-9e-06
-3e-05
-6e-06
-4e-05
-3e-06
-4e-05
-1e-06
-5e-05
2e-07
-5e-05
1e-06
-5e-05
2e-06
-5e-05
3e-06
-5e-05
4e-06
-5e-05
5e-06
-5e-05
5e-06
-4e-05
6e-06
-4e-05
6e-06
-3e-05
6e-06
-3e-05
6e-06
-3e-05
6e-06
-2e-05
5e-06
-2e-05
5e-06
-2e-05
4e-06
-2e-05
3e-06
-2e-05
2e-06
-2e-05
2e-06
-2e-05
1e-06
-2e-05
1e-06
-3e-05
1e-06
-3e-05
1e-06
-3e-05
2e-06
-4e-05
2e-06
-4e-05
2e-06
-5e-05
2e-06
-5e-05
2e-06
-6e-05
2e-06
-7e-05
2e-06
-8e-05
2e-06
-9e-05
9e-07
-0.0001
2e-07
-0.0001
-4e-07
-0.0001
-1e-06
-0.0001
-2e-06
-0.0001
-2e-06
-0.0001
-2e-06
-0.0002
-2e-06
-0.0002
-2e-06
-0.0002
-2e-06
-0.0002
-1e-06
-0.0002
-2e-07
-0.0002
6e-07
-0.0002
2e-06
-0.0002
3e-06
-0.0001
4e-06
-0.0001
5e-06
-0.0001
6e-06
-0.0001
9e-06
-0.0001
1e-05
-0.0001
1e-05
-0.0001
2e-05
-9e-05
2e-05
-7e-05
3e-05
-6e-05
3e-05
-6e-05
4e-05
-5e-05
4e-05
-4e-05
5e-05
-3e-05
5e-05
-3e-05
6e-05
-3e-05
6e-05
-2e-05
6e-05
-2e-05
6e-05
-2e-05
6e-05
-1e-05
5e-05
-1e-05
5e-05
-1e-05
5e-05
-9e-06
4e-05
-9e-06
4e-05
-1e-05
4e-05
-1e-05
3e-05
-2e-05
3e-05
-2e-05
3e-05
-2e-05
3e-05
-3e-05
3e-05
-3e-05
3e-05
-4e-05
3e-05
-4e-05
3e-05
-4e-05
4e-05
-4e-05
4e-05
-4e-05
4e-05
-4e-05
5e-05
-3e-05
5e-05
-3e-05
6e-05
-3e-05
7e-05
-2e-05
7e-05
-1e-05
8e-05
-1e-05
9e-05
-4e-06
0.0001
2e-07
0.0001
4e-06
0.0001
8e-06
0.0001
1e-05
0.0001
1e-05
0.0002
1e-05
0.0002
2e-05
0.0002
2e-05
0.0002
2e-05
0.0002
2e-05
0.0002
2e-05
0.0002
2e-05
0.0002
2e-05
0.0002
2e-05
0.0002
2e-05
0.0002
2e-05
0.0002
2e-05
0.0002
2e-05
0.0001
2e-05
0.0001
2e-05
0.0001
2e-05
0.0001
2e-05
0.0001
2e-05
0.0001
2e-05
9e-05
2e-05
8e-05
2e-05
7e-05
2e-05
6e-05
2e-05
6e-05
2e-05
5e-05
2e-05
5e-05
2e-05
5e-05
2e-05
4e-05
2e-05
4e-05
2e-05
4e-05
2e-05
4e-05
2e-05
4e-05
2e-05
4e-05
2e-05
4e-05
1e-05
4e-05
1e-05
4e-05
1e-05
4e-05
1e-05
5e-05
1e-05
5e-05
1e-05
6e-05
1e-05
6e-05
1e-05
6e-05
1e-05
7e-05
2e-05
7e-05
2e-05
7e-05
2e-05
7e-05
2e-05
7e-05
2e-05
6e-05
2e-05
6e-05
2e-05
6e-05
3e-05
5e-05
3e-05
5e-05
3e-05
4e-05
4e-05
-1e-05
-2e-05
-2e-05
-1e-05
-9e-06
-2e-05
-2e-05
-9e-06
-7e-06
-3e-05
-3e-05
-6e-06
-4e-06
-3e-05
-3e-05
-4e-06
-3e-06
-2e-06
-4e-05
-4e-05
-2e-06
-1e-06
-4e-05
-4e-05
-8e-07
-8e-07
-5e-05
-5e-05
1e-07
-3e-07
-5e-05
-5e-05
8e-07
-3e-08
-5e-05
-5e-05
1e-06
1e-07
-5e-05
-5e-05
2e-06
5e-08
-5e-05
-5e-05
2e-06
-2e-07
-5e-05
-5e-05
2e-06
-6e-07
-5e-05
-5e-05
2e-06
-1e-06
-4e-05
-4e-05
2e-06
-2e-06
-4e-05
-4e-05
2e-06
-4e-06
-3e-05
-3e-05
1e-06
-5e-06
-3e-05
-3e-05
3e-07
-6e-06
-3e-05
-3e-05
-5e-07
-7e-06
-2e-05
-2e-05
-1e-06
-8e-06
-2e-05
-2e-05
-2e-05
-2e-06
-9e-06
-2e-05
-2e-05
-3e-06
-9e-06
-2e-05
-2e-05
-3e-06
-9e-06
-2e-05
-2e-05
-3e-06
-8e-06
-2e-05
-2e-05
-3e-06
-7e-06
-2e-05
-2e-05
-3e-06
-6e-06
-2e-05
-2e-05
-2e-06
-5e-06
-3e-05
-3e-05
-1e-06
-3e-06
-3e-05
-3e-05
-2e-07
-1e-06
-3e-05
-3e-05
8e-07
8e-07
-4e-05
-4e-05
3e-06
2e-06
5e-06
-4e-05
-4e-05
3e-06
6e-06
-5e-05
-5e-05
4e-06
7e-06
-5e-05
-6e-05
5e-06
9e-06
-6e-05
-7e-05
6e-06
1e-05
-7e-05
-7e-05
6e-06
1e-05
-8e-05
-8e-05
6e-06
1e-05
-9e-05
-0.0001
6e-06
1e-05
-0.0001
-0.0001
6e-06
1e-05
-0.0001
-0.0001
5e-06
1e-05
-0.0001
-0.0001
5e-06
1e-05
-0.0001
-0.0001
4e-06
9e-06
-0.0001
-0.0001
3e-06
8e-06
-0.0001
-0.0001
3e-06
7e-06
-0.0002
-0.0002
2e-06
6e-06
-0.0002
-0.0002
-0.0002
2e-06
5e-06
-0.0002
-0.0002
2e-06
4e-06
-0.0002
-0.0002
2e-06
4e-06
-0.0002
-0.0002
2e-06
4e-06
-0.0002
-0.0002
2e-06
4e-06
-0.0002
-0.0002
3e-06
4e-06
-0.0002
-0.0001
4e-06
5e-06
-0.0001
-0.0001
5e-06
5e-06
-0.0001
-0.0001
6e-06
6e-06
-0.0001
-0.0001
7e-06
7e-06
-0.0001
-0.0001
9e-06
8e-06
1e-05
-0.0001
-0.0001
1e-05
1e-05
-0.0001
-9e-05
1e-05
1e-05
-9e-05
-8e-05
2e-05
2e-05
-8e-05
-7e-05
2e-05
2e-05
-7e-05
-6e-05
3e-05
3e-05
-6e-05
-5e-05
3e-05
3e-05
-5e-05
-4e-05
4e-05
4e-05
-4e-05
-4e-05
4e-05
4e-05
-4e-05
-3e-05
5e-05
5e-05
-3e-05
-3e-05
5e-05
5e-05
-3e-05
-2e-05
6e-05
6e-05
-2e-05
-2e-05
6e-05
6e-05
-2e-05
-2e-05
6e-05
6e-05
-2e-05
-1e-05
6e-05
6e-05
-1e-05
-1e-05
6e-05
6e-05
-1e-05
-1e-05
-9e-06
5e-05
5e-05
-1e-05
-9e-06
5e-05
5e-05
-9e-06
-9e-06
5e-05
5e-05
-9e-06
-1e-05
4e-05
4e-05
-1e-05
-1e-05
4e-05
4e-05
-1e-05
-2e-05
4e-05
4e-05
-2e-05
-2e-05
3e-05
3e-05
-2e-05
-2e-05
3e-05
3e-05
-2e-05
-3e-05
3e-05
3e-05
-3e-05
-3e-05
3e-05
3e-05
3e-05
-3e-05
-4e-05
3e-05
3e-05
-4e-05
-4e-05
3e-05
3e-05
-4e-05
-4e-05
3e-05
3e-05
-4e-05
-4e-05
4e-05
4e-05
-4e-05
-4e-05
4e-05
4e-05
-4e-05
-4e-05
4e-05
4e-05
-4e-05
-3e-05
5e-05
5e-05
-3e-05
-3e-05
5e-05
5e-05
-3e-05
-2e-05
6e-05
6e-05
-3e-05
-2e-05
6e-05
6e-05
-2e-05
-1e-05
7e-05
7e-05
-1e-05
-9e-06
8e-05
8e-05
-9e-06
-4e-06
9e-05
9e-05
-4e-06
5e-07
0.0001
0.0001
3e-07
4e-06
0.0001
0.0001
4e-06
7e-06
1e-05
0.0001
0.0001
8e-06
1e-05
0.0001
0.0001
1e-05
1e-05
0.0001
0.0001
1e-05
1e-05
0.0001
0.0002
1e-05
1e-05
0.0002
0.0002
1e-05
1e-05
0.0002
0.0002
2e-05
1e-05
0.0002
0.0002
2e-05
2e-05
0.0002
0.0002
2e-05
2e-05
0.0002
0.0002
2e-05
2e-05
0.0002
0.0002
2e-05
1e-05
0.0002
0.0002
0.0002
2e-05
1e-05
0.0002
0.0002
2e-05
1e-05
0.0002
0.0002
2e-05
1e-05
0.0002
0.0002
2e-05
1e-05
0.0002
0.0002
2e-05
1e-05
0.0002
0.0002
2e-05
9e-06
0.0002
0.0001
1e-05
8e-06
0.0001
0.0001
1e-05
7e-06
0.0001
0.0001
1e-05
7e-06
0.0001
0.0001
1e-05
7e-06
0.0001
0.0001
1e-05
8e-06
0.0001
9e-05
1e-05
9e-06
9e-05
8e-05
1e-05
1e-05
8e-05
8e-05
1e-05
1e-05
7e-05
7e-05
2e-05
1e-05
1e-05
7e-05
6e-05
2e-05
2e-05
6e-05
6e-05
2e-05
2e-05
6e-05
5e-05
2e-05
2e-05
5e-05
5e-05
2e-05
2e-05
5e-05
5e-05
2e-05
2e-05
4e-05
4e-05
2e-05
3e-05
4e-05
4e-05
2e-05
3e-05
4e-05
4e-05
2e-05
3e-05
4e-05
4e-05
2e-05
3e-05
4e-05
4e-05
2e-05
3e-05
4e-05
4e-05
2e-05
3e-05
4e-05
4e-05
2e-05
3e-05
4e-05
4e-05
2e-05
3e-05
4e-05
4e-05
2e-05
3e-05
4e-05
4e-05
2e-05
2e-05
5e-05
5e-05
2e-05
2e-05
5e-05
5e-05
2e-05
2e-05
6e-05
6e-05
2e-05
2e-05
6e-05
6e-05
2e-05
2e-05
7e-05
7e-05
2e-05
2e-05
7e-05
7e-05
2e-05
2e-05
7e-05
7e-05
2e-05
2e-05
7e-05
7e-05
2e-05
2e-05
7e-05
7e-05
2e-05
2e-05
7e-05
7e-05
2e-05
2e-05
6e-05
6e-05
2e-05
2e-05
6e-05
6e-05
2e-05
2e-05
6e-05
6e-05
2e-05
2e-05
5e-05
5e-05
3e-05
2e-05
5e-05
5e-05
3e-05
3e-05
4e-05
3e-05
4e-05
4e-05
3e-05
4e-05
3e-05
SCALARS strain_1 float
LOOKUP_TABLE default
-0.000017
-0.000063
-0.000064
-0.000067
-0.000044
-0.000061
-0.000057
-0.000069
-0.000124
-0.000086
-0.000122
-0.000149
-0.000123
-0.000156
-0.000212
-0.000135
-0.000294
-0.000130
-0.000415
-0.000095
-0.000499
-0.000082
-0.000620
-0.000009
-0.000809
0.000045
-0.001020
0.000121
-0.001223
0.000234
-0.001455
0.000387
-0.001735
0.000545
-0.001993
0.000715
-0.002324
0.000931
-0.002671
0.001174
-0.003042
-0.003457
0.001472
-0.003844
0.001798
-0.004382
0.002108
-0.004851
0.002496
-0.005355
0.002883
-0.005875
0.003376
-0.006449
0.003839
-0.007075
0.004348
-0.007675
0.004905
-0.008309
0.005508
-0.008963
0.006171
0.006800
-0.009617
0.007527
-0.010337
0.008213
-0.011075
0.008982
-0.011808
0.009792
-0.012559
0.010589
-0.013321
0.011420
-0.014135
0.012285
-0.014891
0.013201
-0.015674
0.014091
-0.016534
0.015054
-0.017327
0.015996
-0.018129
0.016925
-0.018914
0.017940
-0.019704
0.018915
-0.020563
-0.021338
0.019902
-0.022104
0.020871
-0.022915
0.021856
-0.023695
0.022827
-0.024436
0.023828
-0.025193
0.024777
-0.025888
0.025713
-0.026597
0.026630
-0.027249
0.027546
-0.027908
0.028437
-0.028577
0.029290
0.030136
-0.029156
0.030952
-0.029722
0.031714
-0.030249
0.032465
-0.030740
0.033148
-0.031261
0.033787
-0.031675
0.034391
-0.032083
0.034977
-0.032486
0.035457
-0.032776
0.035962
-0.033097
0.036394
-0.033335
0.036751
-0.033560
0.037085
-0.033719
0.037365
-0.033874
0.037597
-0.033997
0.037754
-0.034023
-0.033999
0.037888
-0.033972
0.037894
-0.033898
0.037922
-0.033795
0.037899
-0.033614
0.037779
-0.033403
0.037641
-0.033216
0.037387
-0.032908
0.037182
-0.032611
0.036854
-0.032244
0.036531
0.036158
-0.031864
0.035699
-0.031487
0.035212
-0.031041
0.034675
-0.030508
0.034147
-0.030034
0.033574
-0.029488
0.032927
-0.028964
0.032281
-0.028341
0.031602
-0.027739
0.030857
-0.027095
0.030156
-0.026481
0.029354
-0.025770
0.028603
-0.025106
0.027763
-0.024397
0.026970
-0.023676
0.026160
-0.022952
-0.022219
0.025299
-0.021503
0.024471
-0.020738
0.023617
-0.019976
0.022777
-0.019239
0.021904
-0.018503
0.021049
-0.017751
0.020176
-0.016996
0.019345
-0.016283
0.018506
-0.015526
0.017655
-0.014824
0.016790
-0.014078
0.016004
-0.013406
0.015199
-0.012694
0.014384
-0.012038
0.013645
-0.011367
0.012896
-0.010688
0.012155
-0.010058
0.011399
-0.009416
0.010725
-0.008824
0.010038
-0.008252
0.009389
-0.007705
0.008761
-0.007142
0.008126
-0.006644
0.007590
-0.006094
0.007012
-0.005640
0.006461
-0.005184
0.005933
-0.004747
0.005443
-0.004353
0.004970
-0.003912
0.004554
-0.003567
0.004089
-0.003219
0.003667
-0.002901
0.003335
-0.002556
0.002981
-0.002300
0.002686
-0.002018
0.002395
-0.001770
0.002097
-0.001540
0.001802
-0.001357
0.001578
-0.001140
0.001359
-0.001019
0.001145
-0.000849
0.000984
-0.000703
0.000833
-0.000528
0.000669
-0.000434
0.000573
-0.000355
0.000456
-0.000284
0.000370
-0.000181
0.000279
-0.000164
0.000212
-0.000108
0.000139
-0.000091
0.000077
-0.000058
0.000076
-0.000025
0.000024
-0.000018
0.000017
-0.000018
0.000032
-0.000004
-0.000030
0.000004
-0.000032
0.000007
-0.000019
0.000011
-0.000018
-0.000018
-0.000051
-0.000022
-0.000089
-0.000055
-0.000121
-0.000061
-0.000108
-0.000116
-0.000105
-0.000162
-0.000134
-0.000237
-0.000118
-0.000272
-0.000126
-0.000412
-0.000141
-0.000540
-0.000099
-0.000658
-0.000022
-0.000851
0.000018