# vtk DataFile Version 2.0
Generated volume Mesh
ASCII
DATASET UNSTRUCTURED_GRID
POINTS 1240 float
-0.212153 -0.150304 0.000000
-0.206421 -0.141033 0.000000
-0.215099 -0.146056 0.000000
-0.209122 -0.154492 0.000000
-0.217961 -0.141751 0.000000
-0.206009 -0.158620 0.000000
-0.220736 -0.137389 0.000000
-0.202815 -0.162684 0.000000
-0.223424 -0.132973 0.000000
-0.226023 -0.128505 0.000000
-0.199540 -0.166684 0.000000
-0.228534 -0.123985 0.000000
-0.196187 -0.170619 0.000000
-0.230953 -0.119417 0.000000
-0.192756 -0.174486 0.000000
-0.233282 -0.114802 0.000000
-0.189249 -0.178283 0.000000
-0.235519 -0.110141 0.000000
-0.185666 -0.182011 0.000000
-0.237662 -0.105436 0.000000
-0.182011 -0.185666 0.000000
-0.239711 -0.100690 0.000000
-0.178283 -0.189249 0.000000
-0.241666 -0.095904 0.000000
-0.174486 -0.192756 0.000000
-0.243525 -0.091081 0.000000
-0.170619 -0.196187 0.000000
-0.245288 -0.086221 0.000000
-0.166684 -0.199540 0.000000
-0.246953 -0.081327 0.000000
-0.162684 -0.202815 0.000000
-0.248521 -0.076401 0.000000
-0.158620 -0.206009 0.000000
-0.249991 -0.071445 0.000000
-0.154492 -0.209122 0.000000
-0.251363 -0.066459 0.000000
-0.150304 -0.212153 0.000000
-0.252634 -0.061448 0.000000
-0.146056 -0.215099 0.000000
-0.253806 -0.056412 0.000000
-0.141751 -0.217961 0.000000
-0.137389 -0.220736 0.000000
-0.254878 -0.051354 0.000000
-0.132973 -0.223424 0.000000
-0.255849 -0.046275 0.000000
-0.128505 -0.226023 0.000000
-0.256718 -0.041179 0.000000
-0.123985 -0.228534 0.000000
-0.257486 -0.036067 0.000000
-0.119417 -0.230953 0.000000
-0.258152 -0.030940 0.000000
-0.114802 -0.233282 0.000000
-0.258717 -0.025802 0.000000
-0.110141 -0.235519 0.000000
-0.259178 -0.020654 0.000000
-0.105436 -0.237662 0.000000
-0.259538 -0.015498 0.000000
-0.100690 -0.239711 0.000000
-0.259794 -0.010336 0.000000
-0.095904 -0.241666 0.000000
-0.259949 -0.005169 0.000000
-0.091081 -0.243525 0.000000
-0.260000 0.000000 0.000000
-0.259949 0.005169 0.000000
-0.086221 -0.245288 0.000000
-0.259794 0.010336 0.000000
-0.081327 -0.246953 0.000000
-0.259538 0.015498 0.000000
-0.076401 -0.248521 0.000000
-0.259178 0.020654 0.000000
-0.071445 -0.249991 0.000000
-0.258717 0.025802 0.000000
-0.066459 -0.251363 0.000000
-0.258152 0.030940 0.000000
-0.061448 -0.252634 0.000000
-0.257486 0.036067 0.000000
-0.056412 -0.253806 0.000000
-0.256718 0.041179 0.000000
-0.051354 -0.254878 0.000000
-0.255849 0.046275 0.000000
-0.046275 -0.255849 0.000000
-0.254878 0.051354 0.000000
-0.041179 -0.256718 0.000000
-0.253806 0.056412 0.000000
-0.036067 -0.257486 0.000000
-0.252634 0.061448 0.000000
-0.030940 -0.258152 0.000000
-0.251363 0.066459 0.000000
-0.025802 -0.258717 0.000000
-0.249991 0.071445 0.000000
-0.020654 -0.259178 0.000000
-0.248521 0.076401 0.000000
-0.015498 -0.259538 0.000000
-0.010336 -0.259794 0.000000
-0.246953 0.081327 0.000000
-0.005169 -0.259949 0.000000
-0.245288 0.086221 0.000000
0.000000 -0.260000 0.000000
-0.243525 0.091081 0.000000
0.005169 -0.259949 0.000000
-0.241666 0.095904 0.000000
0.010336 -0.259794 0.000000
-0.239711 0.100690 0.000000
0.015498 -0.259538 0.000000
-0.237662 0.105436 0.000000
0.020654 -0.259178 0.000000
-0.235519 0.110141 0.000000
0.025802 -0.258717 0.000000
-0.233282 0.114802 0.000000
0.030940 -0.258152 0.000000
-0.230953 0.119417 0.000000
0.036067 -0.257486 0.000000
-0.228534 0.123985 0.000000
0.041179 -0.256718 0.000000
-0.226023 0.128505 0.000000
-0.223424 0.132973 0.000000
0.046275 -0.255849 0.000000
-0.220736 0.137389 0.000000
0.051354 -0.254878 0.000000
-0.217961 0.141751 0.000000
0.056412 -0.253806 0.000000
-0.215099 0.146056 0.000000
0.061448 -0.252634 0.000000
-0.212153 0.150304 0.000000
0.066459 -0.251363 0.000000
-0.209122 0.154492 0.000000
0.071445 -0.249991 0.000000
-0.206009 0.158620 0.000000
0.076401 -0.248521 0.000000
-0.202815 0.162684 0.000000
0.081327 -0.246953 0.000000
-0.199540 0.166684 0.000000
0.086221 -0.245288 0.000000
-0.196187 0.170619 0.000000
0.091081 -0.243525 0.000000
-0.192756 0.174486 0.000000
0.095904 -0.241666 0.000000
-0.189249 0.178283 0.000000
0.100690 -0.239711 0.000000
-0.185666 0.182011 0.000000
0.105436 -0.237662 0.000000
-0.182011 0.185666 0.000000
0.110141 -0.235519 0.000000
-0.178283 0.189249 0.000000
0.114802 -0.233282 0.000000
-0.174486 0.192756 0.000000
0.119417 -0.230953 0.000000
0.123985 -0.228534 0.000000
-0.170619 0.196187 0.000000
0.128505 -0.226023 0.000000
-0.166684 0.199540 0.000000
0.132973 -0.223424 0.000000
-0.162684 0.202815 0.000000
0.137389 -0.220736 0.000000
-0.158620 0.206009 0.000000
0.141751 -0.217961 0.000000
-0.154492 0.209122 0.000000
0.146056 -0.215099 0.000000
-0.150304 0.212153 0.000000
0.150304 -0.212153 0.000000
-0.146056 0.215099 0.000000
0.154492 -0.209122 0.000000
-0.141751 0.217961 0.000000
0.158620 -0.206009 0.000000
-0.137389 0.220736 0.000000
0.162684 -0.202815 0.000000
-0.132973 0.223424 0.000000
-0.128505 0.226023 0.000000
0.166684 -0.199540 0.000000
-0.123985 0.228534 0.000000
0.170619 -0.196187 0.000000
-0.119417 0.230953 0.000000
0.174486 -0.192756 0.000000
-0.114802 0.233282 0.000000
0.178283 -0.189249 0.000000
-0.110141 0.235519 0.000000
0.182011 -0.185666 0.000000
-0.105436 0.237662 0.000000
0.185666 -0.182011 0.000000
-0.100690 0.239711 0.000000
0.189249 -0.178283 0.000000
-0.095904 0.241666 0.000000
0.192756 -0.174486 0.000000
-0.091081 0.243525 0.000000
0.196187 -0.170619 0.000000
-0.086221 0.245288 0.000000
0.199540 -0.166684 0.000000
-0.081327 0.246953 0.000000
0.202815 -0.162684 0.000000
-0.076401 0.248521 0.000000
0.206009 -0.158620 0.000000
-0.071445 0.249991 0.000000
0.209122 -0.154492 0.000000
-0.066459 0.251363 0.000000
0.212153 -0.150304 0.000000
-0.061448 0.252634 0.000000
0.215099 -0.146056 0.000000
-0.056412 0.253806 0.000000
0.217961 -0.141751 0.000000
0.220736 -0.137389 0.000000
-0.051354 0.254878 0.000000
0.223424 -0.132973 0.000000
-0.046275 0.255849 0.000000
0.226023 -0.128505 0.000000
-0.041179 0.256718 0.000000
0.228534 -0.123985 0.000000
-0.036067 0.257486 0.000000
0.230953 -0.119417 0.000000
-0.030940 0.258152 0.000000
0.233282 -0.114802 0.000000
-0.025802 0.258717 0.000000
0.235519 -0.110141 0.000000
-0.020654 0.259178 0.000000
0.237662 -0.105436 0.000000
-0.015498 0.259538 0.000000
0.239711 -0.100690 0.000000
-0.010336 0.259794 0.000000
0.241666 -0.095904 0.000000
-0.005169 0.259949 0.000000
0.243525 -0.091081 0.000000
0.000000 0.260000 0.000000
0.245288 -0.086221 0.000000
0.005169 0.259949 0.000000
0.246953 -0.081327 0.000000
0.010336 0.259794 0.000000
0.248521 -0.076401 0.000000
0.015498 0.259538 0.000000
0.249991 -0.071445 0.000000
0.020654 0.259178 0.000000
0.251363 -0.066459 0.000000
0.025802 0.258717 0.000000
0.252634 -0.061448 0.000000
0.030940 0.258152 0.000000
0.253806 -0.056412 0.000000
0.036067 0.257486 0.000000
0.254878 -0.051354 0.000000
0.041179 0.256718 0.000000
0.255849 -0.046275 0.000000
0.046275 0.255849 0.000000
0.256718 -0.041179 0.000000
0.051354 0.254878 0.000000
0.257486 -0.036067 0.000000
0.056412 0.253806 0.000000
0.258152 -0.030940 0.000000
0.061448 0.252634 0.000000
0.258717 -0.025802 0.000000
0.066459 0.251363 0.000000
0.259178 -0.020654 0.000000
0.071445 0.249991 0.000000
0.259538 -0.015498 0.000000
0.076401 0.248521 0.000000
0.259794 -0.010336 0.000000
0.081327 0.246953 0.000000
0.259949 -0.005169 0.000000
0.086221 0.245288 0.000000
0.260000 0.000000 0.000000
0.091081 0.243525 0.000000
0.259949 0.005169 0.000000
0.095904 0.241666 0.000000
0.259794 0.010336 0.000000
0.100690 0.239711 0.000000
0.259538 0.015498 0.000000
0.105436 0.237662 0.000000
0.259178 0.020654 0.000000
0.110141 0.235519 0.000000
0.258717 0.025802 0.000000
0.114802 0.233282 0.000000
0.258152 0.030940 0.000000
0.119417 0.230953 0.000000
0.257486 0.036067 0.000000
0.123985 0.228534 0.000000
0.256718 0.041179 0.000000
0.128505 0.226023 0.000000
0.255849 0.046275 0.000000
0.132973 0.223424 0.000000
0.254878 0.051354 0.000000
0.137389 0.220736 0.000000
0.253806 0.056412 0.000000
0.141751 0.217961 0.000000
0.252634 0.061448 0.000000
0.146056 0.215099 0.000000
0.251363 0.066459 0.000000
0.150304 0.212153 0.000000
0.249991 0.071445 0.000000
0.154492 0.209122 0.000000
0.248521 0.076401 0.000000
0.158620 0.206009 0.000000
0.246953 0.081327 0.000000
0.162684 0.202815 0.000000
0.245288 0.086221 0.000000
0.166684 0.199540 0.000000
0.243525 0.091081 0.000000
0.170619 0.196187 0.000000
0.241666 0.095904 0.000000
0.174486 0.192756 0.000000
0.239711 0.100690 0.000000
0.178283 0.189249 0.000000
0.237662 0.105436 0.000000
0.182011 0.185666 0.000000
0.235519 0.110141 0.000000
0.185666 0.182011 0.000000
0.233282 0.114802 0.000000
0.189249 0.178283 0.000000
0.230953 0.119417 0.000000
0.192756 0.174486 0.000000
0.228534 0.123985 0.000000
0.196187 0.170619 0.000000
0.226023 0.128505 0.000000
0.199540 0.166684 0.000000
0.223424 0.132973 0.000000
0.202815 0.162684 0.000000
0.220736 0.137389 0.000000
0.206009 0.158620 0.000000
0.217961 0.141751 0.000000
0.209122 0.154492 0.000000
0.215099 0.146056 0.000000
0.212153 0.150304 0.000000
-0.203462 -0.145269 0.000000
-0.209292 -0.136737 0.000000
-0.200416 -0.149443 0.000000
-0.212073 -0.132382 0.000000
-0.197285 -0.153553 0.000000
-0.214764 -0.127971 0.000000
-0.194070 -0.157598 0.000000
-0.217362 -0.123505 0.000000
-0.190771 -0.161575 0.000000
-0.219868 -0.118987 0.000000
-0.187391 -0.165483 0.000000
-0.222281 -0.114417 0.000000
-0.183931 -0.169320 0.000000
-0.224598 -0.109799 0.000000
-0.180392 -0.173086 0.000000
-0.226819 -0.105134 0.000000
-0.176777 -0.176777 0.000000
-0.228943 -0.100424 0.000000
-0.173086 -0.180392 0.000000
-0.230970 -0.095671 0.000000
-0.169320 -0.183931 0.000000
-0.232898 -0.090877 0.000000
-0.165483 -0.187391 0.000000
-0.234726 -0.086044 0.000000
-0.161575 -0.190771 0.000000
-0.236454 -0.081175 0.000000
-0.157598 -0.194070 0.000000
-0.238081 -0.076271 0.000000
-0.153553 -0.197285 0.000000
-0.239607 -0.071334 0.000000
-0.149443 -0.200416 0.000000
-0.241030 -0.066366 0.000000
-0.145269 -0.203462 0.000000
-0.242350 -0.061370 0.000000
-0.141033 -0.206421 0.000000
[...]
POINT_DATA 1240
SCALARS u1 float
LOOKUP_TABLE default
-6e-06
-6e-06
-6e-06
-7e-06
-6e-06
-8e-06
-5e-06
-8e-06
-5e-06
-5e-06
-8e-06
-5e-06
-9e-06
-5e-06
-9e-06
-6e-06
-9e-06
-6e-06
-9e-06
-6e-06
-8e-06
-6e-06
-8e-06
-7e-06
-8e-06
-7e-06
-7e-06
-8e-06
-6e-06
-9e-06
-6e-06
-1e-05
-5e-06
-1e-05
-4e-06
-1e-05
-4e-06
-1e-05
-3e-06
-1e-05
-3e-06
-3e-06
-2e-05
-3e-06
-2e-05
-2e-06
-2e-05
-2e-06
-2e-05
-2e-06
-2e-05
-2e-06
-2e-05
-2e-06
-2e-05
-2e-06
-2e-05
-2e-06
-2e-05
-2e-06
-2e-05
-2e-06
-2e-05
-2e-05
-3e-06
-2e-05
-3e-06
-2e-05
-3e-06
-2e-05
-3e-06
-2e-05
-3e-06
-2e-05
-4e-06
-2e-05
-4e-06
-2e-05
-4e-06
-2e-05
-4e-06
-2e-05
-4e-06
-1e-05
-4e-06
-1e-05
-4e-06
-1e-05
-3e-06
-1e-05
-3e-06
-1e-05
-3e-06
-2e-06
-9e-06
-2e-06
-9e-06
-2e-06
-8e-06
-1e-06
-8e-06
-1e-06
-7e-06
-8e-07
-7e-06
-5e-07
-7e-06
-3e-07
-6e-06
-7e-08
-6e-06
1e-07
-6e-06
2e-07
-6e-06
-6e-06
3e-07
-6e-06
2e-07
-7e-06
1e-07
-7e-06
-3e-08
-8e-06
-2e-07
-8e-06
-5e-07
-9e-06
-7e-07
-9e-06
-9e-07
-1e-05
-1e-06
-1e-05
-1e-06
-1e-05
-1e-06
-1e-05
-1e-06
-1e-05
-1e-06
-1e-05
-1e-06
-1e-05
-1e-06
-9e-06
-1e-06
-1e-06
-9e-06
-1e-06
-8e-06
-1e-06
-7e-06
-1e-06
-7e-06
-9e-07
-6e-06
-5e-07
-6e-06
-1e-07
-5e-06
4e-07
-5e-06
1e-06
-4e-06
2e-06
-4e-06
-4e-06
2e-06
-4e-06
3e-06
-4e-06
3e-06
-4e-06
4e-06
-4e-06
4e-06
-4e-06
5e-06
-4e-06
5e-06
-4e-06
5e-06
-4e-06
4e-06
-5e-06
4e-06
-5e-06
4e-06
-5e-06
3e-06
-5e-06
3e-06
-5e-06
2e-06
-6e-06
2e-06
-6e-06
1e-06
8e-07
-6e-06
6e-07
-6e-06
5e-07
-6e-06
5e-07
-6e-06
6e-07
-6e-06
8e-07
-5e-06
1e-06
-5e-06
1e-06
-5e-06
2e-06
-5e-06
2e-06
-4e-06
3e-06
-4e-06
3e-06
-3e-06
4e-06
-3e-06
5e-06
-3e-06
6e-06
-3e-06
7e-06
-2e-06
8e-06
-2e-06
9e-06
-2e-06
1e-05
-2e-06
1e-05
-2e-06
1e-05
-2e-06
1e-05
-2e-06
2e-05
-2e-06
2e-05
-2e-06
2e-05
-2e-06
2e-05
-3e-06
2e-05
-3e-06
2e-05
-3e-06
2e-05
-3e-06
2e-05
-3e-06
2e-05
-3e-06
2e-05
-3e-06
2e-05
-3e-06
2e-05
-3e-06
1e-05
-3e-06
1e-05
-3e-06
1e-05
-3e-06
1e-05
-3e-06
1e-05
-3e-06
9e-06
-3e-06
7e-06
-2e-06
6e-06
-2e-06
5e-06
-1e-06
4e-06
-6e-07
3e-06
5e-08
2e-06
7e-07
2e-06
1e-06
1e-06
2e-06
9e-07
2e-06
5e-07
3e-06
2e-07
3e-06
-9e-08
3e-06
-3e-07
3e-06
-5e-07
3e-06
-5e-07
3e-06
-5e-07
2e-06
-3e-07
2e-06
-2e-08
1e-06
4e-07
8e-07
-6e-06
-5e-06
-6e-06
-5e-06
-7e-06
-5e-06
-7e-06
-5e-06
-8e-06
-5e-06
-8e-06
-6e-06
-9e-06
-6e-06
-9e-06
-6e-06
-9e-06
-7e-06
-9e-06
-7e-06
-8e-06
-8e-06
-8e-06
-8e-06
-8e-06
-9e-06
-7e-06
-1e-05
-6e-06
-1e-05
-6e-06
-1e-05
-5e-06
-1e-05
-5e-06
-1e-05
-4e-06
-2e-05
-3e-06
-2e-05
-3e-06
-2e-05
-3e-06
-2e-05
-2e-06
-2e-05
-2e-06
-2e-05
-2e-06
-2e-05
-2e-06
-2e-05
-2e-06
-2e-05
-2e-06
-2e-05
-2e-06
-2e-05
-2e-06
-2e-05
-1e-06
-2e-05
-1e-06
-2e-05
-1e-06
-2e-05
-1e-06
-2e-05
-1e-06
-2e-05
-1e-06
-2e-05
-1e-06
-2e-05
-2e-06
-2e-05
-2e-06
-2e-05
-2e-06
-1e-05
-2e-06
-1e-05
-2e-06
-1e-05
-2e-06
-1e-05
-2e-06
-1e-05
-2e-06
-1e-05
-2e-06
-9e-06
-2e-06
-8e-06
-2e-06
-8e-06
-2e-06
-7e-06
-2e-06
-7e-06
-2e-06
-7e-06
-2e-06
-6e-06
-2e-06
-6e-06
-2e-06
-6e-06
-2e-06
-6e-06
-2e-06
-6e-06
-2e-06
-6e-06
-2e-06
-7e-06
-2e-06
-7e-06
-2e-06
-8e-06
-2e-06
-8e-06
-2e-06
-9e-06
-2e-06
-9e-06
-2e-06
-1e-05
-2e-06
-1e-05
-2e-06
-1e-05
-2e-06
-1e-05
-2e-06
-1e-05
-2e-06
-1e-05
-2e-06
-1e-05
-1e-06
-9e-06
-1e-06
-9e-06
-9e-07
-8e-06
-5e-07
-7e-06
-3e-08
-7e-06
5e-07
-6e-06
1e-06
-6e-06
2e-06
-5e-06
2e-06
-5e-06
3e-06
-4e-06
4e-06
-4e-06
4e-06
-4e-06
4e-06
-4e-06
4e-06
-4e-06
5e-06
-4e-06
4e-06
-4e-06
4e-06
-3e-06
4e-06
-3e-06
4e-06
-3e-06
3e-06
-3e-06
2e-06
-3e-06
2e-06
-3e-06
1e-06
-3e-06
1e-06
-3e-06
7e-07
-3e-06
5e-07
-4e-06
5e-07
-4e-06
5e-07
-4e-06
6e-07
-4e-06
9e-07
-4e-06
1e-06
-4e-06
1e-06
-4e-06
2e-06
-4e-06
2e-06
-4e-06
3e-06
-4e-06
3e-06
-4e-06
4e-06
-4e-06
5e-06
-4e-06
6e-06
-4e-06
7e-06
-4e-06
8e-06
-4e-06
9e-06
-4e-06
1e-05
-4e-06
1e-05
-4e-06
1e-05
-4e-06
1e-05
-4e-06
2e-05
-4e-06
2e-05
-4e-06
2e-05
-4e-06
2e-05
-4e-06
2e-05
-4e-06
2e-05
-4e-06
2e-05
-4e-06
2e-05
-4e-06
2e-05
-4e-06
2e-05
-4e-06
2e-05
-4e-06
2e-05
-3e-06
1e-05
-3e-06
1e-05
-3e-06
1e-05
-3e-06
1e-05
-2e-06
1e-05
-2e-06
9e-06
-1e-06
8e-06
-5e-07
6e-06
2e-07
5e-06
8e-07
4e-06
1e-06
3e-06
2e-06
3e-06
2e-06
2e-06
3e-06
1e-06
3e-06
1e-06
3e-06
6e-07
3e-06
3e-07
3e-06
-2e-08
3e-06
-3e-07
2e-06
-5e-07
2e-06
-5e-07
1e-06
-5e-07
8e-07
-3e-07
-6e-08
3e-07
-6e-06
-6e-06
-6e-06
-6e-06
-6e-06
-6e-06
-7e-06
-5e-06
-5e-06
-7e-06
-7e-06
-5e-06
-5e-06
-7e-06
-8e-06
-5e-06
-5e-06
-5e-06
-8e-06
-8e-06
-5e-06
-5e-06
-8e-06
-9e-06
-5e-06
-5e-06
-9e-06
-9e-06
-6e-06
-6e-06
-9e-06
-9e-06
-6e-06
-6e-06
-9e-06
-9e-06
-6e-06
-6e-06
-9e-06
-8e-06
-7e-06
-7e-06
-8e-06
-8e-06
-7e-06
-7e-06
-8e-06
-8e-06
-8e-06
-8e-06
-8e-06
-7e-06
-8e-06
-9e-06
-7e-06
-6e-06
-9e-06
-9e-06
-6e-06
-6e-06
-1e-05
-1e-05
-6e-06
-5e-06
-1e-05
-1e-05
-5e-06
-4e-06
-1e-05
-1e-05
-4e-06
-4e-06
-1e-05
-1e-05
-4e-06
-3e-06
-1e-05
-2e-05
-3e-06
-3e-06
-3e-06
-2e-05
-2e-05
-3e-06
-3e-06
-2e-05
-2e-05
-3e-06
-2e-06
-2e-05
-2e-05
-2e-06
-2e-06
-2e-05
-2e-05
-2e-06
-2e-06
-2e-05
-2e-05
-2e-06
-2e-06
-2e-05
-2e-05
-2e-06
-2e-06
-2e-05
-2e-05
-2e-06
-2e-06
-2e-05
-2e-05
-2e-06
-2e-06
-2e-05
-2e-05
-2e-06
-2e-06
-2e-05
-2e-05
-2e-06
-2e-06
-2e-05
-2e-05
-2e-05
-2e-06
-2e-06
-2e-05
-2e-05
-2e-06
-2e-06
-2e-05
-2e-05
-2e-06
-2e-06
-2e-05
-2e-05
-2e-06
-3e-06
-2e-05
-2e-05
-2e-06
-3e-06
-2e-05
-2e-05
-2e-06
-3e-06
-2e-05
-2e-05
-2e-06
-3e-06
-2e-05
-2e-05
-2e-06
-3e-06
-2e-05
-2e-05
-2e-06
-3e-06
-2e-05
-2e-05
-2e-06
-3e-06
-2e-05
-1e-05
-2e-06
-3e-06
-1e-05
-1e-05
-2e-06
-3e-06
-1e-05
-1e-05
-2e-06
-3e-06
-1e-05
-1e-05
-2e-06
-3e-06
-1e-05
-1e-05
-2e-06
-2e-06
-2e-06
-1e-05
-9e-06
-2e-06
-2e-06
-9e-06
-9e-06
-2e-06
-2e-06
-8e-06
-8e-06
-2e-06
-1e-06
-8e-06
-8e-06
-2e-06
-1e-06
-7e-06
-7e-06
-1e-06
-1e-06
-7e-06
-7e-06
-1e-06
-9e-07
-7e-06
-7e-06
-1e-06
-7e-07
-7e-06
-6e-06
-1e-06
-6e-07
-6e-06
-6e-06
-1e-06
-5e-07
-6e-06
-6e-06
-1e-06
-5e-07
-6e-06
-6e-06
-6e-06
-1e-06
-6e-07
-6e-06
-6e-06
-1e-06
-6e-07
-6e-06
-7e-06
-1e-06
-7e-07
-7e-06
-7e-06
-2e-06
-9e-07
-7e-06
-8e-06
-2e-06
-1e-06
-8e-06
-8e-06
-2e-06
-1e-06
-8e-06
-9e-06
-2e-06
-1e-06
-9e-06
-9e-06
-2e-06
-1e-06
-9e-06
-1e-05
-2e-06
-2e-06
-1e-05
-1e-05
-2e-06
-2e-06
-1e-05
-1e-05
-2e-06
-2e-06
-1e-05
-1e-05
-2e-06
-2e-06
-1e-05
-1e-05
-2e-06
-2e-06
-1e-05
-1e-05
-2e-06
-2e-06
-1e-05
-1e-05
-2e-06
-2e-06
-1e-05
-9e-06
-2e-06
-1e-06
-1e-06
-9e-06
-9e-06
-1e-06
-1e-06
-9e-06
-8e-06
-1e-06
-1e-06
-8e-06
-7e-06
-8e-07
-8e-07
-7e-06
-7e-06
-5e-07
-5e-07
-7e-06
-6e-06
-2e-08
-5e-08
-6e-06
-6e-06
5e-07
5e-07
-6e-06
-5e-06
1e-06
1e-06
-5e-06
-5e-06
2e-06
2e-06
-5e-06
-5e-06
2e-06
2e-06
-4e-06
-4e-06
-4e-06
3e-06
3e-06
-4e-06
-4e-06
3e-06
3e-06
-4e-06
-4e-06
4e-06
4e-06
-4e-06
-4e-06
4e-06
4e-06
-4e-06
-4e-06
4e-06
5e-06
-4e-06
-4e-06
5e-06
5e-06
-4e-06
-4e-06
4e-06
5e-06
-4e-06
-4e-06
4e-06
4e-06
-4e-06
-4e-06
4e-06
4e-06
-4e-06
-4e-06
4e-06
4e-06
-4e-06
-4e-06
3e-06
3e-06
-4e-06
-4e-06
3e-06
3e-06
-4e-06
-5e-06
2e-06
2e-06
-4e-06
-5e-06
1e-06
1e-06
-4e-06
-5e-06
1e-06
1e-06
-4e-06
-5e-06
7e-07
7e-07
6e-07
-4e-06
-5e-06
5e-07
5e-07
-4e-06
-5e-06
5e-07
5e-07
-4e-06
-5e-06
5e-07
6e-07
-4e-06
-5e-06
7e-07
7e-07
-4e-06
-5e-06
9e-07
1e-06
-4e-06
-5e-06
1e-06
1e-06
-4e-06
-5e-06
2e-06
2e-06
-4e-06
-4e-06
2e-06
2e-06
-4e-06
-4e-06
2e-06
2e-06
-4e-06
-4e-06
3e-06
3e-06
-4e-06
-4e-06
-3e-06
3e-06
4e-06
-4e-06
-3e-06
4e-06
4e-06
-3e-06
-3e-06
5e-06
5e-06
-3e-06
-3e-06
6e-06
6e-06
-3e-06
-3e-06
7e-06
7e-06
-3e-06
-3e-06
8e-06
9e-06
-3e-06
-3e-06
1e-05
1e-05
-3e-06
-2e-06
1e-05
1e-05
-3e-06
-3e-06
1e-05
1e-05
-3e-06
-3e-06
1e-05
1e-05
-3e-06
-3e-06
1e-05
1e-05
-3e-06
-3e-06
2e-05
2e-05
-4e-06
-3e-06
2e-05
2e-05
-4e-06
-3e-06
2e-05
2e-05
-4e-06
-3e-06
2e-05
2e-05
2e-05
-4e-06
-3e-06
2e-05
2e-05
-4e-06
-3e-06
2e-05
2e-05
-4e-06
-3e-06
2e-05
2e-05
-4e-06
-3e-06
2e-05
2e-05
-4e-06
-3e-06
2e-05
2e-05
-4e-06
-3e-06
2e-05
2e-05
-4e-06
-3e-06
2e-05
2e-05
-3e-06
-3e-06
2e-05
1e-05
-3e-06
-3e-06
1e-05
1e-05
-3e-06
-3e-06
1e-05
1e-05
-3e-06
-3e-06
1e-05
1e-05
-3e-06
-3e-06
1e-05
1e-05
-2e-06
-3e-06
9e-06
8e-06
-2e-06
-2e-06
8e-06
7e-06
-1e-06
-2e-06
7e-06
6e-06
-5e-07
-1e-06
5e-06
5e-06
1e-07
-6e-07
4e-06
4e-06
8e-07
9e-08
4e-06
3e-06
1e-06
8e-07
3e-06
2e-06
2e-06
1e-06
2e-06
2e-06
2e-06
2e-06
2e-06
1e-06
3e-06
2e-06
1e-06
8e-07
3e-06
3e-06
7e-07
4e-07
3e-06
3e-06
4e-07
1e-07
3e-06
3e-06
4e-08
-2e-07
3e-06
3e-06
-2e-07
-4e-07
3e-06
3e-06
-5e-07
-5e-07
2e-06
3e-06
-5e-07
-5e-07
2e-06
2e-06
-5e-07
-5e-07
1e-06
2e-06
-3e-07
-3e-07
8e-07
-5e-08
3e-07
1e-06
-4e-08
8e-07
3e-07
SCALARS u2 float
LOOKUP_TABLE default
-2e-06
-2e-06
-1e-06
-2e-06
-8e-07
-3e-06
-5e-07
-3e-06
-3e-07
-2e-07
-4e-06
-2e-07
-5e-06
-2e-07
-5e-06
-2e-07
-6e-06
-2e-07
-6e-06
-2e-07
-6e-06
-2e-07
-6e-06
-3e-07
-6e-06
-4e-07
-6e-06
-5e-07
-6e-06
-7e-07
-5e-06
-9e-07
-5e-06
-1e-06
-4e-06
-1e-06
-4e-06
-2e-06
-3e-06
-2e-06
-3e-06
-2e-06
-2e-06
-2e-06
-2e-06
-2e-06
-2e-06
-2e-06
-2e-06
-2e-06
-2e-06
-2e-06
-1e-06
-3e-06
-1e-06
-3e-06
-8e-07
-3e-06
-5e-07
-4e-06
-2e-07
-4e-06
2e-07
5e-07
-5e-06
8e-07
-5e-06
1e-06
-6e-06
1e-06
-7e-06
2e-06
-8e-06
2e-06
-9e-06
2e-06
-1e-05
2e-06
-1e-05
2e-06
-1e-05
2e-06
-1e-05
2e-06
-2e-05
2e-06
-2e-05
2e-06
-2e-05
2e-06
-2e-05
1e-06
-2e-05
-2e-05
1e-06
-2e-05
1e-06
-2e-05
8e-07
-2e-05
7e-07
-2e-05
7e-07
-2e-05
7e-07
-2e-05
7e-07
-2e-05
7e-07
-2e-05
7e-07
-2e-05
8e-07
-1e-05
8e-07
1e-06
-1e-05
1e-06
-1e-05
1e-06
-1e-05
2e-06
-9e-06
2e-06
-8e-06
3e-06
-7e-06
3e-06
-6e-06
4e-06
-5e-06
5e-06
-4e-06
5e-06
-3e-06
6e-06
-3e-06
6e-06
-3e-06
7e-06
-2e-06
7e-06
-2e-06
7e-06
-2e-06
7e-06
-1e-06
-1e-06
7e-06
-1e-06
7e-06
-1e-06
6e-06
-1e-06
6e-06
-2e-06
5e-06
-2e-06
5e-06
-2e-06
4e-06
-3e-06
4e-06
-4e-06
4e-06
-4e-06
3e-06
3e-06
-4e-06
3e-06
-5e-06
4e-06
-5e-06
4e-06
-5e-06
4e-06
-5e-06
4e-06
-5e-06
5e-06
-4e-06
5e-06
-4e-06
6e-06
-3e-06
6e-06
-2e-06
7e-06
-2e-06
8e-06
-1e-06
9e-06
-4e-07
1e-05
1e-07
1e-05
6e-07
1e-05
9e-07
1e-06
1e-05
1e-06
2e-05
2e-06
2e-05
2e-06
2e-05
2e-06
2e-05
2e-06
2e-05
2e-06
2e-05
2e-06
2e-05
2e-06
2e-05
2e-06
2e-05
2e-06
2e-05
1e-06
2e-05
1e-06
2e-05
1e-06
2e-05
8e-07
2e-05
6e-07
2e-05
4e-07
2e-05
2e-07
2e-05
1e-07
2e-05
1e-07
2e-05
2e-07
1e-05
3e-07
1e-05
4e-07
1e-05
7e-07
1e-05
9e-07
1e-05
1e-06
9e-06
1e-06
8e-06
2e-06
7e-06
2e-06
7e-06
3e-06
6e-06
3e-06
6e-06
3e-06
5e-06
3e-06
5e-06
4e-06
5e-06
4e-06
5e-06
4e-06
4e-06
4e-06
4e-06
4e-06
5e-06
4e-06
5e-06
4e-06
5e-06
4e-06
5e-06
4e-06
6e-06
4e-06
7e-06
3e-06
7e-06
3e-06
8e-06
3e-06
8e-06
3e-06
8e-06
3e-06
9e-06
3e-06
9e-06
3e-06
9e-06
3e-06
8e-06
3e-06
8e-06
3e-06
7e-06
3e-06
7e-06
3e-06
6e-06
3e-06
6e-06
3e-06
5e-06
3e-06
4e-06
3e-06
4e-06
-3e-06
-2e-06
-3e-06
-1e-06
-4e-06
-7e-07
-5e-06
-4e-07
-5e-06
-2e-07
-6e-06
2e-08
-6e-06
1e-07
-6e-06
3e-07
-6e-06
4e-07
-6e-06
5e-07
-6e-06
6e-07
-6e-06
6e-07
-5e-06
7e-07
-5e-06
7e-07
-4e-06
8e-07
-4e-06
8e-07
-3e-06
7e-07
-3e-06
7e-07
-2e-06
6e-07
-2e-06
5e-07
-2e-06
4e-07
-2e-06
3e-07
-2e-06
2e-07
-3e-06
2e-07
-3e-06
2e-07
-3e-06
2e-07
-3e-06
2e-07
-4e-06
2e-07
-4e-06
2e-07
-5e-06
2e-07
-6e-06
2e-07
-6e-06
2e-07
-7e-06
3e-07
-8e-06
2e-07
-1e-05
2e-07
-1e-05
1e-07
-1e-05
3e-08
-1e-05
-5e-08
-1e-05
-1e-07
-2e-05
-2e-07
-2e-05
-3e-07
-2e-05
-3e-07
-2e-05
-3e-07
-2e-05
-3e-07
-2e-05
-2e-07
-2e-05
-1e-07
-2e-05
-2e-08
-2e-05
8e-08
-2e-05
2e-07
-2e-05
3e-07
-2e-05
4e-07
-2e-05
6e-07
-2e-05
8e-07
-2e-05
1e-06
-1e-05
1e-06
-1e-05
2e-06
-1e-05
2e-06
-1e-05
3e-06
-9e-06
4e-06
-8e-06
4e-06
-7e-06
5e-06
-6e-06
5e-06
-5e-06
6e-06
-4e-06
6e-06
-4e-06
7e-06
-3e-06
7e-06
-3e-06
7e-06
-2e-06
7e-06
-2e-06
7e-06
-2e-06
7e-06
-1e-06
6e-06
-1e-06
6e-06
-1e-06
5e-06
-1e-06
5e-06
-1e-06
4e-06
-2e-06
4e-06
-2e-06
4e-06
-2e-06
3e-06
-3e-06
3e-06
-3e-06
4e-06
-4e-06
4e-06
-4e-06
4e-06
-5e-06
4e-06
-5e-06
5e-06
-5e-06
5e-06
-5e-06
5e-06
-4e-06
6e-06
-4e-06
7e-06
-4e-06
7e-06
-3e-06
8e-06
-2e-06
9e-06
-2e-06
1e-05
-1e-06
1e-05
-5e-07
1e-05
2e-08
1e-05
5e-07
2e-05
9e-07
2e-05
1e-06
2e-05
2e-06
2e-05
2e-06
2e-05
2e-06
2e-05
2e-06
2e-05
2e-06
2e-05
2e-06
2e-05
2e-06
2e-05
2e-06
2e-05
3e-06
2e-05
3e-06
2e-05
3e-06
2e-05
3e-06
2e-05
3e-06
2e-05
3e-06
2e-05
2e-06
2e-05
2e-06
2e-05
2e-06
1e-05
2e-06
1e-05
2e-06
1e-05
2e-06
1e-05
2e-06
1e-05
2e-06
9e-06
2e-06
8e-06
2e-06
7e-06
2e-06
7e-06
2e-06
6e-06
2e-06
6e-06
2e-06
5e-06
2e-06
5e-06
2e-06
5e-06
2e-06
5e-06
2e-06
4e-06
2e-06
4e-06
2e-06
5e-06
2e-06
5e-06
2e-06
5e-06
2e-06
5e-06
2e-06
6e-06
2e-06
6e-06
2e-06
7e-06
2e-06
8e-06
2e-06
8e-06
2e-06
8e-06
2e-06
8e-06
2e-06
9e-06
2e-06
8e-06
2e-06
8e-06
2e-06
8e-06
2e-06
8e-06
3e-06
7e-06
3e-06
6e-06
3e-06
6e-06
4e-06
4e-06
5e-06
-2e-06
-2e-06
-2e-06
-2e-06
-1e-06
-3e-06
-3e-06
-1e-06
-8e-07
-3e-06
-3e-06
-8e-07
-5e-07
-4e-06
-4e-06
-5e-07
-3e-07
-2e-07
-5e-06
-5e-06
-2e-07
-2e-07
-5e-06
-5e-06
-9e-08
-9e-08
-6e-06
-6e-06
1e-08
-4e-08
-6e-06
-6e-06
1e-07
-3e-09
-6e-06
-6e-06
2e-07
1e-08
-6e-06
-6e-06
2e-07
7e-09
-6e-06
-6e-06
3e-07
-2e-08
-6e-06
-6e-06
3e-07
-8e-08
-6e-06
-6e-06
3e-07
-2e-07
-5e-06
-5e-06
3e-07
-3e-07
-5e-06
-5e-06
2e-07
-4e-07
-4e-06
-4e-06
1e-07
-6e-07
-4e-06
-4e-06
4e-08
-7e-07
-3e-06
-3e-06
-6e-08
-9e-07
-3e-06
-3e-06
-2e-07
-1e-06
-2e-06
-2e-06
-2e-06
-3e-07
-1e-06
-2e-06
-2e-06
-3e-07
-1e-06
-2e-06
-2e-06
-4e-07
-1e-06
-2e-06
-2e-06
-4e-07
-1e-06
-2e-06
-2e-06
-4e-07
-9e-07
-3e-06
-3e-06
-3e-07
-7e-07
-3e-06
-3e-06
-2e-07
-6e-07
-3e-06
-3e-06
-1e-07
-4e-07
-3e-06
-4e-06
-2e-08
-1e-07
-4e-06
-4e-06
1e-07
1e-07
-4e-06
-5e-06
4e-07
2e-07
6e-07
-5e-06
-5e-06
4e-07
7e-07
-6e-06
-6e-06
5e-07
9e-07
-7e-06
-7e-06
6e-07
1e-06
-8e-06
-8e-06
7e-07
1e-06
-9e-06
-9e-06
8e-07
1e-06
-1e-05
-1e-05
8e-07
1e-06
-1e-05
-1e-05
8e-07
1e-06
-1e-05
-1e-05
7e-07
1e-06
-1e-05
-1e-05
7e-07
1e-06
-2e-05
-2e-05
6e-07
1e-06
-2e-05
-2e-05
5e-07
1e-06
-2e-05
-2e-05
4e-07
1e-06
-2e-05
-2e-05
3e-07
9e-07
-2e-05
-2e-05
2e-07
7e-07
-2e-05
-2e-05
-2e-05
2e-07
6e-07
-2e-05
-2e-05
2e-07
5e-07
-2e-05
-2e-05
2e-07
5e-07
-2e-05
-2e-05
2e-07
5e-07
-2e-05
-2e-05
3e-07
5e-07
-2e-05
-2e-05
4e-07
5e-07
-2e-05
-2e-05
5e-07
6e-07
-2e-05
-2e-05
6e-07
7e-07
-2e-05
-2e-05
7e-07
7e-07
-2e-05
-2e-05
8e-07
8e-07
-1e-05
-1e-05
1e-06
1e-06
1e-06
-1e-05
-1e-05
1e-06
1e-06
-1e-05
-1e-05
2e-06
2e-06
-1e-05
-1e-05
2e-06
2e-06
-1e-05
-9e-06
3e-06
3e-06
-8e-06
-7e-06
3e-06
3e-06
-7e-06
-6e-06
4e-06
4e-06
-6e-06
-5e-06
5e-06
5e-06
-5e-06
-5e-06
5e-06
5e-06
-4e-06
-4e-06
6e-06
6e-06
-4e-06
-3e-06
6e-06
6e-06
-3e-06
-3e-06
7e-06
7e-06
-3e-06
-2e-06
7e-06
7e-06
-2e-06
-2e-06
7e-06
7e-06
-2e-06
-2e-06
7e-06
7e-06
-2e-06
-1e-06
7e-06
7e-06
-1e-06
-1e-06
-1e-06
7e-06
7e-06
-1e-06
-1e-06
6e-06
6e-06
-1e-06
-1e-06
6e-06
6e-06
-1e-06
-1e-06
5e-06
5e-06
-1e-06
-2e-06
5e-06
5e-06
-2e-06
-2e-06
4e-06
4e-06
-2e-06
-2e-06
4e-06
4e-06
-2e-06
-3e-06
4e-06
4e-06
-3e-06
-3e-06
3e-06
3e-06
-3e-06
-4e-06
3e-06
3e-06
3e-06
-4e-06
-4e-06
4e-06
4e-06
-4e-06
-5e-06
4e-06
4e-06
-5e-06
-5e-06
4e-06
4e-06
-5e-06
-5e-06
4e-06
4e-06
-5e-06
-5e-06
5e-06
5e-06
-5e-06
-4e-06
5e-06
5e-06
-4e-06
-4e-06
6e-06
6e-06
-4e-06
-4e-06
6e-06
6e-06
-4e-06
-3e-06
7e-06
7e-06
-3e-06
-2e-06
8e-06
8e-06
-2e-06
-2e-06
8e-06
9e-06
-2e-06
-1e-06
9e-06
1e-05
-1e-06
-5e-07
1e-05
1e-05
-5e-07
6e-08
1e-05
1e-05
3e-08
5e-07
1e-05
1e-05
5e-07
9e-07
1e-06
1e-05
1e-05
1e-06
1e-06
2e-05
2e-05
1e-06
1e-06
2e-05
2e-05
2e-06
2e-06
2e-05
2e-05
2e-06
2e-06
2e-05
2e-05
2e-06
2e-06
2e-05
2e-05
2e-06
2e-06
2e-05
2e-05
2e-06
2e-06
2e-05
2e-05
2e-06
2e-06
2e-05
2e-05
2e-06
2e-06
2e-05
2e-05
2e-06
2e-06
2e-05
2e-05
2e-05
2e-06
2e-06
2e-05
2e-05
2e-06
2e-06
2e-05
2e-05
2e-06
1e-06
2e-05
2e-05
2e-06
1e-06
2e-05
2e-05
2e-06
1e-06
2e-05
2e-05
2e-06
1e-06
2e-05
2e-05
2e-06
9e-07
2e-05
2e-05
2e-06
9e-07
2e-05
2e-05
2e-06
9e-07
1e-05
1e-05
2e-06
9e-07
1e-05
1e-05
2e-06
1e-06
1e-05
1e-05
2e-06
1e-06
1e-05
1e-05
2e-06
1e-06
1e-05
9e-06
2e-06
1e-06
9e-06
8e-06
2e-06
2e-06
2e-06
8e-06
8e-06
2e-06
2e-06
7e-06
7e-06
2e-06
2e-06
7e-06
6e-06
2e-06
2e-06
6e-06
6e-06
2e-06
3e-06
6e-06
6e-06
2e-06
3e-06
5e-06
5e-06
3e-06
3e-06
5e-06
5e-06
3e-06
3e-06
5e-06
5e-06
3e-06
3e-06
5e-06
5e-06
3e-06
3e-06
4e-06
4e-06
3e-06
3e-06
4e-06
4e-06
3e-06
3e-06
4e-06
5e-06
3e-06
3e-06
5e-06
5e-06
3e-06
3e-06
5e-06
5e-06
2e-06
3e-06
5e-06
5e-06
2e-06
3e-06
6e-06
6e-06
2e-06
3e-06
6e-06
6e-06
2e-06
3e-06
7e-06
7e-06
2e-06
3e-06
8e-06
8e-06
2e-06
2e-06
8e-06
8e-06
2e-06
2e-06
8e-06
8e-06
2e-06
2e-06
8e-06
9e-06
2e-06
2e-06
9e-06
9e-06
2e-06
2e-06
8e-06
8e-06
2e-06
2e-06
8e-06
8e-06
2e-06
2e-06
8e-06
8e-06
2e-06
2e-06
7e-06
7e-06
3e-06
3e-06
7e-06
7e-06
3e-06
3e-06
6e-06
6e-06
3e-06
3e-06
6e-06
6e-06
3e-06
3e-06
5e-06
4e-06
4e-06
5e-06
3e-06
4e-06
4e-06
SCALARS strain_1 float
LOOKUP_TABLE default
-0.000010
-0.000008
-0.000010
-0.000004
-0.000009
-0.000007
-0.000008
-0.000009
-0.000015
-0.000014
-0.000013
-0.000017
-0.000021
-0.000021
-0.000024
-0.000018
-0.000038
-0.000018
-0.000053
-0.000013
-0.000062
-0.000010
-0.000082
-0.000006
-0.000102
0.000003
-0.000122
0.000012
-0.000150
0.000024
-0.000181
0.000046
-0.000212
0.000064
-0.000248
0.000084
-0.000287
0.000112
-0.000329
0.000144
-0.000380
-0.000422
0.000179
-0.000478
0.000215
-0.000534
0.000257
-0.000593
0.000302
-0.000656
0.000355
-0.000728
0.000403
-0.000793
0.000468
-0.000866
0.000531
-0.000937
0.000601
-0.001016
0.000673
-0.001095
0.000748
0.000830
-0.001180
0.000919
-0.001271
0.001005
-0.001360
0.001095
-0.001445
0.001192
-0.001538
0.001292
-0.001631
0.001395
-0.001725
0.001501
-0.001819
0.001613
-0.001920
0.001723
-0.002019
0.001839
-0.002112
0.001954
-0.002217
0.002068
-0.002313
0.002183
-0.002410
0.002305
-0.002506
-0.002609
0.002430
-0.002701
0.002550
-0.002797
0.002663
-0.002895
0.002786
-0.002987
0.002906
-0.003078
0.003023
-0.003162
0.003137
-0.003249
0.003252
-0.003331
0.003364
-0.003413
0.003473
-0.003489
0.003576
0.003683
-0.003563
0.003779
-0.003629
0.003870
-0.003700
0.003961
-0.003760
0.004047
-0.003820
0.004122
-0.003873
0.004203
-0.003921
0.004272
-0.003966
0.004335
-0.004011
0.004393
-0.004045
0.004446
-0.004073
0.004494
-0.004102
0.004530
-0.004120
0.004564
-0.004133
0.004586
-0.004147
0.004609
-0.004158
-0.004158
0.004618
-0.004155
0.004631
-0.004144
0.004627
-0.004127
0.004624
-0.004109
0.004612
-0.004084
0.004593
-0.004053
0.004571
-0.004026
0.004538
-0.003989
0.004500
-0.003948
0.004461
0.004412
-0.003899
0.004358
-0.003846
0.004303
-0.003790
0.004237
-0.003728
0.004170
-0.003674
0.004101
-0.003607
0.004022
-0.003539
0.003940
-0.003467
0.003855
-0.003390
0.003769
-0.003317
0.003681
-0.003233
0.003585
-0.003153
0.003489
-0.003069
0.003389
-0.002981
0.003295
-0.002898
0.003196
-0.002813
-0.002714
0.003085
-0.002632
0.002984
-0.002535
0.002883
-0.002446
0.002778
-0.002349
0.002674
-0.002264
0.002570
-0.002173
0.002462
-0.002078
0.002355
-0.001989
0.002255
-0.001900
0.002153
-0.001810
0.002050
-0.001725
0.001952
-0.001643
0.001855
-0.001557
0.001759
-0.001468
0.001664
-0.001387
0.001572
-0.001310
0.001484
-0.001228
0.001392
-0.001155
0.001307
-0.001082
0.001223
-0.001014
0.001145
-0.000946
0.001071
-0.000878
0.000991
-0.000808
0.000919
-0.000748
0.000851
-0.000689
0.000788
-0.000636
0.000720
-0.000582
0.000666
-0.000533
0.000605
-0.000480
0.000551
-0.000437
0.000499
-0.000390
0.000448
-0.000353
0.000405
-0.000319
0.000366
-0.000279
0.000324
-0.000250
0.000284
-0.000219
0.000249
-0.000188
0.000221
-0.000161
0.000193
-0.000141
0.000165
-0.000124
0.000138
-0.000104
0.000118
-0.000086
0.000101
-0.000070
0.000078
-0.000057
0.000066
-0.000049
0.000054
-0.000034
0.000039
-0.000022
0.000029
-0.000021
0.000028
-0.000017
0.000018
-0.000013
0.000008
-0.000011
0.000007
-0.000005
0.000000
-0.000005
-0.000005
-0.000002
0.000000
-0.000006
-0.000001
-0.000004
-0.000008
-0.000005
-0.000004
-0.000005
-0.000003
-0.000010
-0.000009
-0.000009
-0.000014
-0.000009
-0.000014
-0.000011
-0.000018
-0.000017
-0.000022
-0.000024
-0.000021
-0.000024
-0.000022
-0.000036
-0.000015
-0.000053
-0.000016
-0.000068
-0.000011
-0.000084
-0.000005
-0.000105
0.000004
-0.000128
0.000016
-0.000151
0.000027
-0.000182
0.000042
-0.000214
0.000063
-0.000252
0.000085
-0.000290
0.000111
-0.000324
0.000140
-0.000376
0.000173
-0.000427
0.000211
-0.000477
0.000246
-0.000535
0.000296
-0.000593
0.000349
-0.000654
0.000402
-0.000719
0.000457
-0.000787
0.000521
-0.000858
0.000588
-0.000934
0.000655
-0.001010
0.000730
-0.001086