<?xml version="1.0" encoding="UTF-8"?>
<VTKFile type="UnstructuredGrid" version="0.1" byte_order="LittleEndian">
<UnstructuredGrid>
<Piece NumberOfPoints="9300" NumberOfCells="16740">
<PointData>
<DataArray type="Float64" Name="Stress_2" Format="ascii">
1.672065360413845E7
1.6739922982740153E7
1.6758391993079476E7
1.6776082981802756E7
1.6585422816140719E7
1.660727497500104E7
1.662811198300201E7
1.6452312531697392E7
1.6475305609460415E7
1.631963431057291E7
1.6241869954336902E7
1.6268616811789684E7
1.629452204191621E7
1.6111958021964557E7
1.6141219153383994E7
1.6169452882194182E7
1.5984127079084963E7
1.6014530392354555E7
1.5856714505681036E7
1.6648240095198661E7
1.6619587509346612E7
1.6590078819225334E7
1.6559676131088467E7
1.6788580026111405E7
1.676281274048504E7
1.6735818013034599E7
1.6931139289146025E7
1.6906628880584586E7
1.707415184540422E7
1.719339327607812E7
1.7204864767102085E7
1.721552634867959E7
1.722541842719999E7
1.705271202019395E7
1.7066776837702185E7
1.7079881685160853E7
1.6914170445585422E7
1.692941248424583E7
1.7142181792778656E7
1.7120383792610325E7
1.70977104882364E7
1.728665329812921E7
1.7267722339052957E7
1.724758673769771E7
1.7433321697874695E7
1.7415667727271922E7
1.7580416738965828E7
1.5756780528747447E7
1.5790884349152552E7
1.5824194561790876E7
1.5632386921025168E7
1.5669032890884621E7
1.5704588865817798E7
1.5510070595020011E7
1.5547809507104235E7
1.5388147255272329E7
1.6147269302259982E7
1.6111708526642185E7
1.60752506839635E7
1.6037877902885696E7
1.628310966327234E7
1.6250377308584707E7
1.6216401492799167E7
1.6421157269566547E7
1.6389676651616666E7
1.7658598823992174E7
1.7662204952916816E7
1.766494558155557E7
1.7666881124952704E7
1.7512589543247327E7
1.7518777170396093E7
1.752402476213604E7
1.736876837705093E7
1.7376146783424005E7
1.7633106849276837E7
1.761645172498799E7
1.7598873980701588E7
1.7779692475663476E7
1.776588677528013E7
1.775086727333266E7
1.7928442668976948E7
1.7915944733653754E7
1.8077565240905322E7
1.5268010185313044E7
1.5308882495108932E7
1.5348918341129411E7
1.5148700653842118E7
1.5192050800134422E7
1.523430374617621E7
1.5031452274091855E7
1.507590103768158E7
1.4914577405941049E7
1.564155641692824E7
1.5598464919582684E7
1.5554496541154362E7
1.5509599760516772E7
1.5772030418270186E7
1.573176798843288E7
1.5690204029786175E7
1.5904726041577961E7
1.5865663233966002E7
1.811887856281239E7
1.8113385062594045E7
1.810703103074719E7
1.8099830429178607E7
1.796660491596911E7
1.796364869131995E7
1.7959767985822763E7
1.781650770334693E7
1.7814688808276024E7
1.8111382630585473E7
1.8100962558224507E7
1.8089677388639912E7
1.8261012538653225E7
1.825342706480699E7
1.824469232078589E7
1.841277150775247E7
1.840651410190418E7
1.856471457839535E7
1.4772809696210608E7
1.4820871148684707E7
1.4868125378129631E7
1.46593555305848E7
1.4709890283986235E7
1.4759294827025771E7
1.4547922911394719E7
1.4599537009344663E7
1.4436833688502984E7
1.5130761749859275E7
1.5079994908397924E7
1.5028345040410543E7
1.4975757933844969E7
1.525545743327574E7
1.5207464362048673E7
1.5158137421947202E7
1.5382312538266439E7
1.5335483926863316E7
1.856423144826178E7
1.8551410684727926E7
1.853802742877362E7
1.8524068182719182E7
1.8407922127518773E7
1.8397661888757136E7
1.8386330866556425E7
1.8253654449693438E7
1.8244363557126146E7
1.8877568917017516E7
1.8897587105605867E7
1.8917974129571564E7
1.8937729335272383E7
1.8758787568701386E7
1.8781971149734776E7
1.8803403669224527E7
1.8641315885803074E7
1.8665369697208792E7
1.860653415296564E7
1.8593539167397954E7
1.8579544255420618E7
1.875004268699426E7
1.8740050496763058E7
1.8728476416723E7
1.8895760867815174E7
1.888718390454703E7
1.9041537364737403E7
1.4273359499337465E7
1.4328663033593941E7
1.438315194494551E7
1.4166016289398655E7
1.422376434765104E7
1.4280347396039326E7
1.4060665648012672E7
1.4119487014047056E7
1.395563204620678E7
1.461448529798139E7
1.4556310565430716E7
1.4497261107376467E7
1.4437269984673193E7
1.4733360602204511E7
1.4677921064259853E7
1.4621122592949938E7
1.4854359112963576E7
1.4800058151596913E7
1.9240894505888175E7
1.927510578145323E7
1.9308559659859106E7
1.9341209910119604E7
1.9139408520964228E7
1.9175628129152745E7
1.921065261816992E7
1.903851124587768E7
1.9076160787740856E7
1.905924988052485E7
1.90543293463779E7
1.904826256426587E7
1.9207084734252915E7
1.920439626704822E7
1.9201135412287086E7
1.9356440354801983E7
1.9355913420306038E7
1.9506050011099957E7
1.377215301762133E7
1.3834117285407249E7
1.389527328934712E7
1.367062456287361E7
1.3734984666527739E7
1.3798184269719087E7
1.3571030884195436E7
1.3636460443411177E7
1.3471710597600698E7
1.4094335251144163E7
1.4028789059478765E7
1.3962388083434822E7
1.3895047199042423E7
1.4207138214406345E7
1.4144299911257306E7
1.4080069438790826E7
1.4322021243783876E7
1.4260295158363657E7
1.9661806020426657E7
1.9685883079035535E7
1.9709865634033054E7
1.9733138639900576E7
1.955398104497599E7
1.9580865043815922E7
1.9606769144928172E7
1.944755252303436E7
1.9476134607541624E7
1.9559085310556114E7
1.9541022943206266E7
1.9523844719486155E7
1.9691261861726932E7
1.967706657653368E7
1.9661974562156912E7
1.9825054711448435E7
1.9812798559369154E7
1.9958919733255412E7
1.3266375123303851E7
1.3335592966941379E7
1.3404050648464866E7
1.3171555969473854E7
1.324317685190208E7
1.3313567416163402E7
1.3078621326678533E7
1.3151271459918533E7
1.2985924761988407E7
1.3571018478156796E7
1.3498234779378518E7
1.3424598413097441E7
1.3350025320239285E7
1.3677576657236699E7
1.360744795792744E7
1.3535904260936435E7
1.3786148133906806E7
1.3717116398879351E7
2.0076898940028343E7
2.0089391036012694E7
2.0101635080594864E7
2.011328982314387E7
1.996132397863646E7
1.997658186238212E7
1.9990942913826723E7
1.9847119339240767E7
1.9864226386976708E7
2.0016497181798387E7
1.999774592037352E7
1.9978712966756515E7
2.014266462606947E7
2.0126992601837322E7
2.011020314753321E7
2.0270340248035572E7
2.025669183964938E7
2.039822660007274E7
1.2762243545690313E7
1.2837596381337348E7
1.2912158914214505E7
1.2673173773571953E7
1.2750851361813119E7
1.282730659326411E7
1.2585944770277236E7
1.2664649166652186E7
1.2498905312375346E7
1.3045848974309897E7
1.2965798360812664E7
1.2884931175771717E7
1.2803135818188334E7
1.3145823186089758E7
1.3068415482190724E7
1.2989558570076987E7
1.3247782246471588E7
1.317145122477488E7
2.046902530058326E7
2.0473336211052325E7
2.047743375492988E7
2.0481003277172614E7
2.034936105246534E7
2.035659470215803E7
2.0362889517769706E7
2.0231198031633966E7
2.0240355462133132E7
2.044198662306207E7
2.0427783752424646E7
2.041335223208413E7
2.05680754281144E7
2.055713289374296E7
2.0544998001608513E7
2.069572066324937E7
2.0686840399744082E7
2.0823598372408666E7
1.225691053491009E7
1.2338306690905906E7
1.2418998950708615E7
1.217388978272147E7
1.2257628127405971E7
1.234010297435604E7
1.2092669144652087E7
1.2177394061692819E7
1.201157273549972E7
1.2519830674124159E7
1.243250109845263E7
1.2344361582887754E7
1.2255302847094664E7
1.2612918879908487E7
1.2528179479511967E7
1.244195843796065E7
1.2707909310580872E7
1.2624233199832525E7
2.084724332484111E7
2.0843689214280788E7
2.083994076497075E7
2.083571693978226E7
2.0724074975563623E7
2.0723483549923856E7
2.0721990967967115E7
2.0602411534545664E7
2.0603799383770794E7
2.0841823231500864E7
2.083611392942875E7
2.0830168841000408E7
2.097153521862018E7
2.0969083275969878E7
2.096551543937603E7
2.110279299607239E7
2.1102470588330984E7
2.123429155220945E7
1.1746702907290064E7
1.1835768359297303E7
1.192407003616661E7
1.1671503978420718E7
1.1762814262397282E7
1.1852821860923428E7
1.159801347828731E7
1.169030945822243E7
1.1524599774041994E7
1.1992834061970433E7
1.1898525288083522E7
1.180345203595962E7
1.1707478761708135E7
1.20790188745125E7
1.198729088860845E7
1.1894054890086835E7
1.2167071470077576E7
1.2076393954643277E7
2.1210826866267174E7
2.1199767256189585E7
2.1188529434812795E7
2.1176868539375644E7
2.1084690491346255E7
2.1076629405136235E7
2.1067700694837943E7
2.096007800864362E7
2.095404287792568E7
2.123168560436414E7
2.1232886629730158E7
2.1233882298891984E7
2.1363229778351393E7
2.1367759166180465E7
2.137116757434278E7
2.1496327453691956E7
2.150301548617183E7
2.162965213783322E7
1.1240239381971216E7
1.1335780455918245E7
1.1430580750352202E7
1.1171980828409083E7
1.1269743615437772E7
1.136615614016896E7
1.1105357872476384E7
1.1204089434847299E7
1.103877728785202E7
1.146866910228762E7
1.136677138030773E7
1.1264119474937834E7
1.1160579120291138E7
1.1547055929731615E7
1.1447689434732085E7
1.134677649725211E7
1.1627202886575209E7
1.1528885139831383E7
2.1560711641095173E7
2.1541939932452187E7
2.1523101479037024E7
2.1503899525007118E7
2.1431651547639497E7
2.141598259459148E7
2.1399493798611585E7
2.1304145520337768E7
2.129054721736555E7
2.160099826808041E7
2.1610806971320532E7
2.1620489210024282E7
2.1735852960704647E7
2.1749091432908833E7
2.1761242328907374E7
2.1872323341790624E7
2.1887789138142157E7
2.2009005456325248E7
1.074035919896208E7
1.0840530206255604E7
1.0940033226407275E7
1.0677428366130907E7
1.077983928099726E7
1.0880901226688895E7
1.0616156105549928E7
1.0719518333053213E7
1.055486393578264E7
1.0943108756613322E7
1.0834760131329153E7
1.0725620588684442E7
1.0615597450994903E7
1.101442664682274E7
1.0908527155348198E7
1.0801071326549761E7
1.1087470113081764E7
1.098262070297775E7
2.1894240050930146E7
2.1868451957182527E7
2.184255011801125E7
2.1816327494629186E7
2.1763027255683914E7
2.174032712086577E7
2.1716838071192887E7
2.163334569651573E7
2.1612770196276546E7
2.1952661933110442E7
2.197168818154312E7
2.1990568342812534E7
2.209119354094585E7
2.211362008506988E7
2.2135073485438652E7
2.2231315926123835E7
2.225605411700864E7
2.237166500106148E7
1.0237973142333204E7
1.0344298807175774E7
1.0449959800726876E7
1.0182200663373565E7
1.0290683783922685E7
1.039781514119669E7
1.0127968758407567E7
1.0237394651761238E7
1.0073633027561491E7
1.0418838761292983E7
1.0304418653120313E7
1.0189311228925828E7
1.0073332093577256E7
1.048330544467051E7
1.037136193788302E7
1.0257774175538996E7
1.0549452309168644E7
1.0438503659064148E7
2.2211751486984733E7
2.2179227394432068E7
2.2146575624092966E7
2.2113645735788435E7
2.2078830484297544E7
2.2049405953170285E7
2.2019204567730974E7
2.194746672084027E7
2.192020401629453E7
2.2297097000204664E7
2.2322156253778942E7
2.234711888914454E7
2.2435940751738623E7
2.2464505088928737E7
2.2492071044514064E7
2.257640321854629E7
2.2607300968396693E7
2.2717068822166402E7
9738163.031368405
9850643.513239354
9962511.848572344
9689843.428465385
9804449.233167797
9917641.974338481
9642951.931197794
9758468.876012497
9595880.96567556
9898613.444996951
9778069.104130475
9656871.404782373
9534818.900645688
9955855.62610562
9837712.249001693
9717918.262225404
1.0014640983046114E7
9897473.566022571
2.2510421910039198E7
2.247216465248138E7
2.243387787454906E7
2.239535223378186E7
2.2377065762020152E7
2.234200077355364E7
2.2306163293599103E7
2.224526524212739E7
2.2212371205003284E7
2.2618779794476956E7
2.265171930134576E7
2.2684572759074666E7
2.2759543701923504E7
2.2796037977849487E7
2.283155404468921E7
2.2901972391819075E7
2.2940862931052987E7
2.304458646160092E7
9244286.718068788
9362113.430159282
9479362.773055557
9202799.246893667
9322718.167313196
9441191.528162163
9162694.937469631
9283504.034267688
9122326.06840481
9381323.673411312
9255264.35547427
9128547.896005122
9000995.2274303
9431551.264428679
9307825.505313432
9182448.44060751
9483269.239416167
9360515.316396171
2.279658733110924E7
2.275154690322233E7
2.270640750339374E7
2.2661069339003656E7
2.2661784581622556E7
2.2619865834698375E7
2.257723378934242E7
2.2528476912135795E7
2.2488783466929503E7
2.2921084926000606E7
2.2962406665806424E7
2.3003639852085E7
2.3064161327907152E7
2.310898963390728E7
2.315295781849587E7
2.320882466221968E7
2.325612190059305E7
2.3353671725714073E7
8752429.258656038
8876347.136306241
8999697.218439884
8718793.105188161
8844739.989194326
8969202.96049514
8686439.649627497
8813265.920151688
8653731.805524671
8869365.480138006
8737809.362696037
8605657.210245725
8472678.535041288
8912369.800266322
8783139.750381287
8652188.936438195
8956797.770633146
8828507.213616058
2.3063645185133096E7
2.301262251656236E7
2.2961554797305588E7
2.291033033339874E7
2.2928387312728725E7
2.28805531973995E7
2.283201316637379E7
2.2794651592872396E7
2.2749071812394947E7
2.321577707689957E7
2.3261857808728922E7
2.330789839768914E7
2.3357359216170672E7
2.340703671495468E7
2.345580920325889E7
2.3500543186387546E7
2.3552678015697878E7
2.3643856923942E7
8264515.426822669
8394863.023667911
8524651.626880826
8239316.796470623
8371639.892375674
8502413.990081003
8215289.024851952
8348479.528281054
8190837.134409658
8360884.58899627
8224843.918677388
8088246.552043859
7950840.223819035
8397360.141850028
8263590.860296995
8128098.5218210025
8435180.932752684
8302329.452596185
2.3315225265541583E7
2.3257782890560735E7
2.3200323054883946E7
2.3142753122743305E7
2.317922581295351E7
2.3124978239340585E7
2.3070071607417524E7
2.3044716060420867E7
2.2992761339684807E7
2.3485301569826037E7
2.353827328645067E7
2.359117486483177E7
2.362732407094141E7
2.3683845379500628E7
2.373949570212496E7
2.377090201745739E7
2.3829913066348188E7
2.391457102677491E7
7786209.344922543
7921653.9794521425
8056586.424576068
7768365.04379716
7905745.246660362
8041574.158380826
7751625.478152222
7889873.6578507805
7734360.849019103
7858589.667341341
7718469.020701218
7577812.323744338
7436348.830286268
7888621.831534846
7750713.844434867
7611062.61391473
7919928.331983469
7782912.387979449
2.3548559908761133E7
2.348501372393252E7
2.342151420837798E7
2.335795282522877E7
2.34122706732231E7
2.335197185161162E7
2.329105094359836E7
2.3277467545655765E7
2.3219498757375393E7
2.3736983881366435E7
2.379624102389822E7
2.3855489994207475E7
2.3878750745680287E7
2.3941594265011933E7
2.400359764494663E7
2.402204825423052E7
2.4087401765806567E7
2.4165378105946288E7
7309738.559561339
7451791.506475594
7593414.458338637
7301073.6518664975
7444962.004447938
7587337.488623511
7293362.347892458
7438075.249884956
7284868.21061192
7359363.404862133
7216882.146254055
7073907.031687569
6930059.087905314
7384376.664166952
7244042.521133533
7101945.516945273
7410598.954266451
7271104.358250991
2.3764849908910498E7
2.3695070345935505E7
2.3625346316464294E7
2.355560597175576E7
2.3628217009125844E7
2.356168240640635E7
2.349456405574329E7
2.349305283165738E7
2.3428892784717523E7
2.3968972546588957E7
2.4034479963247463E7
2.4099991692683734E7
2.4110255741890386E7
2.4179350198487747E7
2.424762948215099E7
2.4253047905638725E7
2.4324681561887354E7
2.4395825734948363E7
6838114.663725202
6987900.191444604
7136741.991153233
6840081.321993649
6990965.382273996
7139934.048930999
6841792.071253481
6993242.736005811
6843114.0867756605
6515552.228015559
6625145.966999658
6734408.562059088
6479809.552613266
6591287.792128644
6700496.692227879
6444803.415144572
6555925.986453161
6410408.165571664
6850712.857063349
6711510.794121675
6572443.130452286
6432490.249119555
6876646.843297
6739894.313278004
6601401.591442325
6903634.0858135205
6767566.952835386
2.395861524414159E7
2.388411597847067E7
2.380973082350002E7
2.3735363341686573E7
2.3823289097248077E7
2.3752098410358228E7
2.368032286146963E7
2.3689439266612895E7
2.362063759429066E7
2.4181396765718844E7
2.4252877858538024E7
2.43243908282767E7
2.432179321037916E7
2.4396879786749855E7
2.4471177052171845E7
2.4463687670481395E7
2.4541337581588585E7
2.4605516376694083E7
6133627.7617502175
6227177.850809646
6319387.868057588
6082928.430990103
6177956.96391777
6271538.025191296
6034150.82326071
6128717.053142636
5986242.540793136
6361460.156901806
6224304.989144882
6085709.166368429
5945628.930603133
6384490.427956069
6248620.140124229
6111572.4720303435
6408780.244091447
6273663.535230558
2.4138302000552308E7
2.405773267255264E7
2.3977314152319685E7
2.3896965393575806E7
2.400303832568186E7
2.39257701852081E7
2.3847986173217785E7
2.3869208238616593E7
2.3794376498594053E7
2.4373961699281406E7
2.4451113755586125E7
2.452833284027393E7
2.451307273522854E7
2.459383949485601E7
2.4673848310060415E7
2.4653645531901896E7
2.4737004033255726E7
2.4794097299492706E7
5695832.054552789
5794084.248771522
5890987.7744625155
5653139.680660758
5752925.969321104
5851469.3221303215
5612452.235403534
5711920.4119859105
5572545.97893164
5833214.461207665
5713105.871581973
5591607.314903126
5468740.523572348
5869692.673485223
5751233.4963783035
5630800.330294885
5907634.876383375
5788980.808358875
2.4295969919808764E7
2.4210546350031614E7
2.4125299647971712E7
2.4040158728283715E7
2.4162033674489714E7
2.407993601228291E7
2.3997326668299146E7
2.4029531033898115E7
2.3949894363533996E7
2.4546349083916027E7
2.462886152046209E7
2.471147486546567E7
2.468374654106012E7
2.4769890165338192E7
2.4855297534964953E7
2.482258614496432E7
2.4911340038898602E7
2.4961243374243945E7
5260042.708855829
5365591.434985844
5469871.489131954
5228305.595636664
5335399.8663842
5441287.48856805
5198520.762073499
5305413.007508553
5169389.899597438
5373180.225194114
5251463.567368122
5128514.970117233
5004140.561748995
5403820.757689111
5283796.937112176
5162336.677755987
5436224.952982265
5316256.260169289
2.4432927625218187E7
2.434336407415463E7
2.4253976723462023E7
2.4164719033952594E7
2.4301108008784078E7
2.421484982784977E7
2.4128083551593505E7
2.417069355953996E7
2.4086901386594333E7
2.469826882423931E7
2.4785825667872384E7
2.4873509402860418E7
2.4833548612568643E7
2.4924734340374112E7
2.5015210227701835E7
2.4970234224174086E7
2.5064045773110952E7
2.5106672813745696E7
4842786.430167957
4952901.754319059
5061889.697449097
4819556.248629119
4931263.647474901
5041760.728596729
4798233.389269276
4909787.616284838
4777451.962507666
4928897.329123264
4804477.016325915
4678842.500312034
4551711.242329861
4952691.193515394
4829975.7750049755
4705766.1122531565
4978231.036510482
4855521.242058361
2.4548802362208243E7
2.4455838365965962E7
2.4363065714957025E7
2.4270444280400265E7
2.4419931879611544E7
2.4330255057972528E7
2.4240068808497276E7
2.429242348159114E7
2.4205195077505365E7
2.4830277929303538E7
2.492228137408348E7
2.5014434257078484E7
2.4962745318157535E7
2.505839294625418E7
2.515332986350521E7
2.5096603542456765E7
2.5194884341594223E7
2.5230139729059875E7
4435355.914966237
4550571.552432187
4664719.516639519
4421328.997416902
4538103.236528902
4653679.218185517
4409098.196397526
4525789.346193464
4397296.706526749
4487488.879317799
4363682.886520656
4238777.040581843
4112439.289150259
4507507.2885711845
4385485.899726783
4261986.794232557
4529421.837750893
4407310.494274478
2.4645275270363897E7
2.454901193418471E7
2.44529951131603E7
2.435716206170529E7
2.4519545876737997E7
2.442658189703918E7
2.43331330962435E7
2.4395129946341258E7
2.4304604912795793E7
2.4938921303889126E7
2.503584047634364E7
2.5132926333907694E7
2.5068987913575068E7
2.51695341551132E7
2.5269405261874914E7
2.520040415599618E7
2.5303616300503593E7
2.5331438760135353E7
4045776.8474680563
4164034.422437499
4281325.474468224
4039116.170506524
4158942.2176144253
4277553.617510165
4034183.2860482926
4153939.9495868473
4029572.611291385
4072385.1672526826
3945116.814241166
3816810.6674580057
3687115.2921906523
4084413.248645824
3958895.973692462
3831932.6729404326
4098235.6815886823
3972664.061707599
2.4726443308742058E7
2.4625654581327762E7
2.452510227294966E7
2.442475903408773E7
2.4602616609748155E7
2.4505060808568645E7
2.440707072295941E7
2.4480048302849054E7
2.4384962573827833E7
2.5027969216575358E7
2.512893088709375E7
2.5230102052788295E7
2.515472886877419E7
2.5259323043532666E7
2.5363272589651417E7
2.5282792780890368E7
2.5390073231469005E7
2.5410409686128717E7
3666479.02749382
3788532.59712149
3909686.8355969144
3668112.0414838255
3791708.6663323063
3914090.9106053235
3671375.642129884
3794952.184755837
3674852.8470422365
3670531.9960849327
3540236.119398441
3408986.696632036
3276405.1601397768
3674792.898636283
3546246.745027832
3416256.505306227
3680793.923442412
3552214.365673429
2.4781879651574478E7
2.4678669238063343E7
2.457577330256728E7
2.4473118847886097E7
2.4662158686110854E7
2.456222959984244E7
2.4461854644136354E7
2.454367130410964E7
2.4446181944579516E7
2.5097216157407243E7
2.5201386862505093E7
2.530579955094977E7
2.521977371655696E7
2.532758605879244E7
2.543475626012944E7
2.5343608338739954E7
2.5454105041203238E7
2.5466917434630807E7
3301766.667327326
3427082.106698815
3551563.6768195266
3311357.7661763052
3438190.4372823485
3563804.9368647668
3322470.617913788
3449325.778270716
3333700.9677702393
3283106.266625622
3150081.2675372167
3016182.5287518674
2881034.1709227576
3279690.211670827
3148402.231078455
3015668.4678702774
3277932.100904555
3146631.2013779576
2.482266357926594E7
2.4715524464057595E7
2.46087100400045E7
2.4502187547997702E7
2.4705521581729233E7
2.4601619064108524E7
2.4497337025045913E7
2.458956581278158E7
2.4488126418418538E7
2.5144017853404503E7
2.5251414987075247E7
2.535905752218502E7
2.5262345183335073E7
2.5373350395119406E7
2.5483731412719276E7
2.5381902261706214E7
2.5495608771911032E7
2.5500844211761817E7
2952477.6423846823
3080428.647385353
3207624.3094475507
2969569.879483928
3099027.217047128
3227273.737643316
2988100.15238195
3117618.9973700917
3006648.3866412374
2913402.5021188785
2777096.6929122917
2639986.2426689146
2501692.4026882276
2901540.8495684015
2766940.3273200165
2630900.075072256
2891222.580703034
2756659.605839442
2.4841392680931777E7
2.473129499684564E7
2.4621456375426278E7
2.4511561123699844E7
2.472770576218108E7
2.462076924179849E7
2.4513478223551914E7
2.461524556105318E7
2.4510789480829757E7
2.5170983052348543E7
2.5280710193387028E7
2.5390649180523213E7
2.52842905573648E7
2.53973838680257E7
2.5509962485497404E7
2.5398631663047645E7
2.5514254095966E7
2.5512787574988376E7
2618876.636223994
2748933.667015078
2878315.8417888572
2643124.2921503456
2774670.6055356553
2905014.186517166
2668713.0874010613
2800357.4194874414
2694214.958639058
2557156.769999307
2418621.1683112346
2279363.7585933534
2139003.171351293
2537690.4135230356
2400848.111594639
2262556.671034694
2519681.9535583807
2382905.2598896907
2.4825436975834757E7
2.471739705224131E7
2.4609989689541325E7
2.4502554028911997E7
2.472088716482909E7
2.4615614194060333E7
2.45104286112888E7
2.4616642571354046E7
2.451334843215949E7
2.4756245557926156E7
2.466130037260025E7
2.4567604448977314E7
2.4473383148600105E7
2.4671121550093077E7
2.4579918332129516E7
2.448790706971446E7
2.4586905055756748E7
2.4497156511190325E7
2.5185441984274417E7
2.529404719855798E7
2.5403322351787455E7
2.5289760282429397E7
2.5402304866556473E7
2.5514352017895047E7
2.5395431386737894E7
2.5510399094238218E7
2.550095520974621E7
2302068.4024342513
2433493.8578618164
2564344.6918411683
2332900.4328030944
2465817.1558338795
2597528.8677821206
2364994.748447695
2498036.2476674635
2396900.5083447774
2217847.77107177
2077208.9817194329
1935926.3554380806
1793603.087520113
2190693.7969460627
2051722.1226334714
1911305.767005096
2164897.40865477
2026034.5415142544
2.4770182806685325E7
2.465465427362203E7
2.4540052876280695E7
2.4424812437800735E7
2.467115528724869E7
2.455851068212023E7
2.444589513720394E7
2.4572198103819102E7
2.4461561988611784E7
2.5093066179415558E7
2.5228646486740872E7
2.536472456786491E7
2.521771234370923E7
2.535586157979121E7
2.5495287180565584E7
2.5342189805424172E7
2.5483445508864075E7
2.546696827709877E7
2000803.644494151
2133477.117076708
2265647.2059763474
2038244.0902164923
2172386.109321751
2305323.997261182
2076852.7389068033
2211150.7844546735
2115167.82238917
1892502.7072716795
1751026.8261307497
1609014.385420994
1466056.0859082548
1858753.6076245815
1718950.071414145
1577685.6128263222
1826284.7489136057
1686605.131440398
2.4729642619131476E7
2.4604860588036463E7
2.4481228597364355E7
2.435717713634248E7
2.4627910633221157E7
2.4506123527192086E7
2.4384889941471662E7
2.4526316822606392E7
2.440694764176308E7
2.5110327045746077E7
2.5228090427059174E7
2.534776418236784E7
2.521016347205215E7
2.5332066651389517E7
2.5454475792311613E7
2.5310224514989644E7
2.543487249530032E7
2.5410407385076646E7
1715944.395540681
1849579.0259233417
1982797.8480126387
1759868.2839739337
1894954.0705752273
2028846.5514274256
1804861.3463595007
1940142.1832011896
1849435.1744667552
1587808.2134343765
1444772.103070606
1301293.4500705232
1156947.4267531235
1546570.0977831832
1405181.5266482003
1262341.3826095762
1506482.1096555577
1365273.1710408656
2.4650704193914875E7
2.452314233419979E7
2.439693207868584E7
2.4270434319413826E7
2.455265720160996E7
2.4428350314393252E7
2.4304596573078018E7
2.445483087409214E7
2.4333123455665246E7
2.5031601066189427E7
2.515711815965429E7
2.5283966253629453E7
2.5131429550494596E7
2.526050276054542E7
2.5390068059625387E7
2.5231385930782244E7
2.5363270937928237E7
2.533146986122607E7
1449772.9863645562
1583462.6059834985
1716835.2549887847
1499423.5036915485
1634571.212235851
1768492.7429519678
1550056.402982222
1685417.3925760896
1600170.9189439274
1299639.1252058072
1155849.4084300655
1011702.3017090507
866765.0053439579
1251528.9486090075
1109370.3242580353
965758.3543245968
1204470.2943861606
1062530.1015363976
2.4550558148522396E7
2.4421120462241173E7
2.429302483842747E7
2.416471754053997E7
2.445699193307072E7
2.4330825016546093E7
2.4205177038722124E7
2.4363633595094144E7
2.424007093376741E7
2.4942162071823943E7
2.5071156235421374E7
2.5201490922530122E7
2.5037971363536045E7
2.51706228493555E7
2.5303654553528365E7
2.513399443374852E7
2.526941958124747E7
2.5230137518137988E7
1195465.5845943019
1330776.692060999
1465830.2740235452
1252532.0462904237
1389255.0028822005
1524785.145123098
1310449.7879652323
1447462.1628678213
1367708.3750226526
1029375.1994556746
885340.3002080005
741042.9429703737
596028.7844579174
974727.2163366203
832315.1492873324
688450.796755498
921038.2400112152
778880.493544174
2.4430705507808432E7
2.429966599058745E7
2.4169999985311598E7
2.404017575464138E7
2.4341870444542818E7
2.421412595759189E7
2.408688230893065E7
2.425323186560496E7
2.4128075127582222E7
2.4830458433929175E7
2.4962880229091756E7
2.5096661591837943E7
2.4922381686664768E7
2.505844932474333E7
2.519489472336262E7
2.5014475918357067E7
2.5153338224182904E7
2.5106662112081602E7
964732.6703629121
1099354.0860741911
1233835.7893050855
1027082.9851517947
1163125.0189085496
1297945.613691972
1090169.101309101
1226526.6954084737
1152480.7850621946
776528.5654255631
633080.194778923
489452.34496555774
345196.38300291443
716029.200485778
574184.4022845598
430871.06587457424
656378.1234200108
514812.35556664923
2.429462384794976E7
2.4161153422264073E7
2.402910653159865E7
2.389697632852489E7
2.4209685008897144E7
2.4079495255855277E7
2.3949876346301448E7
2.4124885864836074E7
2.3997306521147612E7
2.469795682061528E7
2.483330723589227E7
2.497009265503217E7
2.4785612905745953E7
2.492462422918231E7
2.5064068072671834E7
2.4873396160791963E7
2.5015233498300124E7
2.496123482334979E7
749995.5390172907
884376.9873029779
1018696.2293569808
818148.8498071234
953932.9552659354
1088488.8192670355
886927.1808360596
1023071.2756402437
954814.4496496567
544256.2268820779
401311.57007946307
258289.52639062415
114726.39305605652
477689.98709845
336337.85965931776
193517.51507513435
411856.08175688575
270826.65950706817
2.413773199277882E7
2.4002650075583298E7
2.3869023270058826E7
2.3735365519154865E7
2.405736890029513E7
2.3925586598095044E7
2.3794376044313285E7
2.3977141235549163E7
2.384798074321241E7
2.4545030842944358E7
2.4682830015237167E7
2.482210534236983E7
2.462798285788828E7
2.4769436615768537E7
2.4911362198943473E7
2.4711029944265664E7
2.4855311272838347E7
2.479409218649261E7
553438.0965493236
687372.6526452748
821319.8492082437
627304.2481378017
762619.3406806852
896700.126506488
701669.732310676
837391.9179443009
775026.3923424697
331602.23441697867
189540.6352837682
47497.38420304745
-94994.20623351021
259222.8628524791
118739.98272635492
-23220.341228909787
187450.89738665597
47332.17591368708
2.396100761659656E7
2.3824893918881908E7
2.3690238080147468E7
2.355559798326814E7
2.3885714371901065E7
2.3752877678763136E7
2.362061535505731E7
2.3810527167032912E7
2.3680305468918864E7
2.4373644085795358E7
2.451282514156386E7
2.465350953524354E7
2.4450884613893215E7
2.459373100607119E7
2.473703242944536E7
2.4528211828315906E7
2.4673869861456763E7
2.4605510919052735E7
375564.0989123788
508776.1202327122
642084.6147832649
454979.0705674038
589546.0503530386
722889.1910989849
534762.733463177
669791.6596725093
613379.2564775819
140163.7568980313
-1033.4716757294848
-142131.47926354507
-283593.80705493357
61825.46895024408
-77820.75134325931
-218941.63769584213
-16042.005771146127
-155272.96796627122
2.376411774868682E7
2.362772448281192E7