# vtk DataFile Version 2.0
Generated volume Mesh
ASCII
DATASET UNSTRUCTURED_GRID
POINTS 1240 float
-0.212153 -0.150304 0.000000
-0.206421 -0.141033 0.000000
-0.215099 -0.146056 0.000000
-0.209122 -0.154492 0.000000
-0.217961 -0.141751 0.000000
-0.206009 -0.158620 0.000000
-0.220736 -0.137389 0.000000
-0.202815 -0.162684 0.000000
-0.223424 -0.132973 0.000000
-0.226023 -0.128505 0.000000
-0.199540 -0.166684 0.000000
-0.228534 -0.123985 0.000000
-0.196187 -0.170619 0.000000
-0.230953 -0.119417 0.000000
-0.192756 -0.174486 0.000000
-0.233282 -0.114802 0.000000
-0.189249 -0.178283 0.000000
-0.235519 -0.110141 0.000000
-0.185666 -0.182011 0.000000
-0.237662 -0.105436 0.000000
-0.182011 -0.185666 0.000000
-0.239711 -0.100690 0.000000
-0.178283 -0.189249 0.000000
-0.241666 -0.095904 0.000000
-0.174486 -0.192756 0.000000
-0.243525 -0.091081 0.000000
-0.170619 -0.196187 0.000000
-0.245288 -0.086221 0.000000
-0.166684 -0.199540 0.000000
-0.246953 -0.081327 0.000000
-0.162684 -0.202815 0.000000
-0.248521 -0.076401 0.000000
-0.158620 -0.206009 0.000000
-0.249991 -0.071445 0.000000
-0.154492 -0.209122 0.000000
-0.251363 -0.066459 0.000000
-0.150304 -0.212153 0.000000
-0.252634 -0.061448 0.000000
-0.146056 -0.215099 0.000000
-0.253806 -0.056412 0.000000
-0.141751 -0.217961 0.000000
-0.137389 -0.220736 0.000000
-0.254878 -0.051354 0.000000
-0.132973 -0.223424 0.000000
-0.255849 -0.046275 0.000000
-0.128505 -0.226023 0.000000
-0.256718 -0.041179 0.000000
-0.123985 -0.228534 0.000000
-0.257486 -0.036067 0.000000
-0.119417 -0.230953 0.000000
-0.258152 -0.030940 0.000000
-0.114802 -0.233282 0.000000
-0.258717 -0.025802 0.000000
-0.110141 -0.235519 0.000000
-0.259178 -0.020654 0.000000
-0.105436 -0.237662 0.000000
-0.259538 -0.015498 0.000000
-0.100690 -0.239711 0.000000
-0.259794 -0.010336 0.000000
-0.095904 -0.241666 0.000000
-0.259949 -0.005169 0.000000
-0.091081 -0.243525 0.000000
-0.260000 0.000000 0.000000
-0.259949 0.005169 0.000000
-0.086221 -0.245288 0.000000
-0.259794 0.010336 0.000000
-0.081327 -0.246953 0.000000
-0.259538 0.015498 0.000000
-0.076401 -0.248521 0.000000
-0.259178 0.020654 0.000000
-0.071445 -0.249991 0.000000
-0.258717 0.025802 0.000000
-0.066459 -0.251363 0.000000
-0.258152 0.030940 0.000000
-0.061448 -0.252634 0.000000
-0.257486 0.036067 0.000000
-0.056412 -0.253806 0.000000
-0.256718 0.041179 0.000000
-0.051354 -0.254878 0.000000
-0.255849 0.046275 0.000000
-0.046275 -0.255849 0.000000
-0.254878 0.051354 0.000000
-0.041179 -0.256718 0.000000
-0.253806 0.056412 0.000000
-0.036067 -0.257486 0.000000
-0.252634 0.061448 0.000000
-0.030940 -0.258152 0.000000
-0.251363 0.066459 0.000000
-0.025802 -0.258717 0.000000
-0.249991 0.071445 0.000000
-0.020654 -0.259178 0.000000
-0.248521 0.076401 0.000000
-0.015498 -0.259538 0.000000
-0.010336 -0.259794 0.000000
-0.246953 0.081327 0.000000
-0.005169 -0.259949 0.000000
-0.245288 0.086221 0.000000
0.000000 -0.260000 0.000000
-0.243525 0.091081 0.000000
0.005169 -0.259949 0.000000
-0.241666 0.095904 0.000000
0.010336 -0.259794 0.000000
-0.239711 0.100690 0.000000
0.015498 -0.259538 0.000000
-0.237662 0.105436 0.000000
0.020654 -0.259178 0.000000
-0.235519 0.110141 0.000000
0.025802 -0.258717 0.000000
-0.233282 0.114802 0.000000
0.030940 -0.258152 0.000000
-0.230953 0.119417 0.000000
0.036067 -0.257486 0.000000
-0.228534 0.123985 0.000000
0.041179 -0.256718 0.000000
-0.226023 0.128505 0.000000
-0.223424 0.132973 0.000000
0.046275 -0.255849 0.000000
-0.220736 0.137389 0.000000
0.051354 -0.254878 0.000000
-0.217961 0.141751 0.000000
0.056412 -0.253806 0.000000
-0.215099 0.146056 0.000000
0.061448 -0.252634 0.000000
-0.212153 0.150304 0.000000
0.066459 -0.251363 0.000000
-0.209122 0.154492 0.000000
0.071445 -0.249991 0.000000
-0.206009 0.158620 0.000000
0.076401 -0.248521 0.000000
-0.202815 0.162684 0.000000
0.081327 -0.246953 0.000000
-0.199540 0.166684 0.000000
0.086221 -0.245288 0.000000
-0.196187 0.170619 0.000000
0.091081 -0.243525 0.000000
-0.192756 0.174486 0.000000
0.095904 -0.241666 0.000000
-0.189249 0.178283 0.000000
0.100690 -0.239711 0.000000
-0.185666 0.182011 0.000000
0.105436 -0.237662 0.000000
-0.182011 0.185666 0.000000
0.110141 -0.235519 0.000000
-0.178283 0.189249 0.000000
0.114802 -0.233282 0.000000
-0.174486 0.192756 0.000000
0.119417 -0.230953 0.000000
0.123985 -0.228534 0.000000
-0.170619 0.196187 0.000000
0.128505 -0.226023 0.000000
-0.166684 0.199540 0.000000
0.132973 -0.223424 0.000000
-0.162684 0.202815 0.000000
0.137389 -0.220736 0.000000
-0.158620 0.206009 0.000000
0.141751 -0.217961 0.000000
-0.154492 0.209122 0.000000
0.146056 -0.215099 0.000000
-0.150304 0.212153 0.000000
0.150304 -0.212153 0.000000
-0.146056 0.215099 0.000000
0.154492 -0.209122 0.000000
-0.141751 0.217961 0.000000
0.158620 -0.206009 0.000000
-0.137389 0.220736 0.000000
0.162684 -0.202815 0.000000
-0.132973 0.223424 0.000000
-0.128505 0.226023 0.000000
0.166684 -0.199540 0.000000
-0.123985 0.228534 0.000000
0.170619 -0.196187 0.000000
-0.119417 0.230953 0.000000
0.174486 -0.192756 0.000000
-0.114802 0.233282 0.000000
0.178283 -0.189249 0.000000
-0.110141 0.235519 0.000000
0.182011 -0.185666 0.000000
-0.105436 0.237662 0.000000
0.185666 -0.182011 0.000000
-0.100690 0.239711 0.000000
0.189249 -0.178283 0.000000
-0.095904 0.241666 0.000000
0.192756 -0.174486 0.000000
-0.091081 0.243525 0.000000
0.196187 -0.170619 0.000000
-0.086221 0.245288 0.000000
0.199540 -0.166684 0.000000
-0.081327 0.246953 0.000000
0.202815 -0.162684 0.000000
-0.076401 0.248521 0.000000
0.206009 -0.158620 0.000000
-0.071445 0.249991 0.000000
0.209122 -0.154492 0.000000
-0.066459 0.251363 0.000000
0.212153 -0.150304 0.000000
-0.061448 0.252634 0.000000
0.215099 -0.146056 0.000000
-0.056412 0.253806 0.000000
0.217961 -0.141751 0.000000
0.220736 -0.137389 0.000000
-0.051354 0.254878 0.000000
0.223424 -0.132973 0.000000
-0.046275 0.255849 0.000000
0.226023 -0.128505 0.000000
-0.041179 0.256718 0.000000
0.228534 -0.123985 0.000000
-0.036067 0.257486 0.000000
0.230953 -0.119417 0.000000
-0.030940 0.258152 0.000000
0.233282 -0.114802 0.000000
-0.025802 0.258717 0.000000
0.235519 -0.110141 0.000000
-0.020654 0.259178 0.000000
0.237662 -0.105436 0.000000
-0.015498 0.259538 0.000000
0.239711 -0.100690 0.000000
-0.010336 0.259794 0.000000
0.241666 -0.095904 0.000000
-0.005169 0.259949 0.000000
0.243525 -0.091081 0.000000
0.000000 0.260000 0.000000
0.245288 -0.086221 0.000000
0.005169 0.259949 0.000000
0.246953 -0.081327 0.000000
0.010336 0.259794 0.000000
0.248521 -0.076401 0.000000
0.015498 0.259538 0.000000
0.249991 -0.071445 0.000000
0.020654 0.259178 0.000000
0.251363 -0.066459 0.000000
0.025802 0.258717 0.000000
0.252634 -0.061448 0.000000
0.030940 0.258152 0.000000
0.253806 -0.056412 0.000000
0.036067 0.257486 0.000000
0.254878 -0.051354 0.000000
0.041179 0.256718 0.000000
0.255849 -0.046275 0.000000
0.046275 0.255849 0.000000
0.256718 -0.041179 0.000000
0.051354 0.254878 0.000000
0.257486 -0.036067 0.000000
0.056412 0.253806 0.000000
0.258152 -0.030940 0.000000
0.061448 0.252634 0.000000
0.258717 -0.025802 0.000000
0.066459 0.251363 0.000000
0.259178 -0.020654 0.000000
0.071445 0.249991 0.000000
0.259538 -0.015498 0.000000
0.076401 0.248521 0.000000
0.259794 -0.010336 0.000000
0.081327 0.246953 0.000000
0.259949 -0.005169 0.000000
0.086221 0.245288 0.000000
0.260000 0.000000 0.000000
0.091081 0.243525 0.000000
0.259949 0.005169 0.000000
0.095904 0.241666 0.000000
0.259794 0.010336 0.000000
0.100690 0.239711 0.000000
0.259538 0.015498 0.000000
0.105436 0.237662 0.000000
0.259178 0.020654 0.000000
0.110141 0.235519 0.000000
0.258717 0.025802 0.000000
0.114802 0.233282 0.000000
0.258152 0.030940 0.000000
0.119417 0.230953 0.000000
0.257486 0.036067 0.000000
0.123985 0.228534 0.000000
0.256718 0.041179 0.000000
0.128505 0.226023 0.000000
0.255849 0.046275 0.000000
0.132973 0.223424 0.000000
0.254878 0.051354 0.000000
0.137389 0.220736 0.000000
0.253806 0.056412 0.000000
0.141751 0.217961 0.000000
0.252634 0.061448 0.000000
0.146056 0.215099 0.000000
0.251363 0.066459 0.000000
0.150304 0.212153 0.000000
0.249991 0.071445 0.000000
0.154492 0.209122 0.000000
0.248521 0.076401 0.000000
0.158620 0.206009 0.000000
0.246953 0.081327 0.000000
0.162684 0.202815 0.000000
0.245288 0.086221 0.000000
0.166684 0.199540 0.000000
0.243525 0.091081 0.000000
0.170619 0.196187 0.000000
0.241666 0.095904 0.000000
0.174486 0.192756 0.000000
0.239711 0.100690 0.000000
0.178283 0.189249 0.000000
0.237662 0.105436 0.000000
0.182011 0.185666 0.000000
0.235519 0.110141 0.000000
0.185666 0.182011 0.000000
0.233282 0.114802 0.000000
0.189249 0.178283 0.000000
0.230953 0.119417 0.000000
0.192756 0.174486 0.000000
0.228534 0.123985 0.000000
0.196187 0.170619 0.000000
0.226023 0.128505 0.000000
0.199540 0.166684 0.000000
0.223424 0.132973 0.000000
0.202815 0.162684 0.000000
0.220736 0.137389 0.000000
0.206009 0.158620 0.000000
0.217961 0.141751 0.000000
0.209122 0.154492 0.000000
0.215099 0.146056 0.000000
0.212153 0.150304 0.000000
-0.203462 -0.145269 0.000000
-0.209292 -0.136737 0.000000
-0.200416 -0.149443 0.000000
-0.212073 -0.132382 0.000000
-0.197285 -0.153553 0.000000
-0.214764 -0.127971 0.000000
-0.194070 -0.157598 0.000000
-0.217362 -0.123505 0.000000
-0.190771 -0.161575 0.000000
-0.219868 -0.118987 0.000000
-0.187391 -0.165483 0.000000
-0.222281 -0.114417 0.000000
-0.183931 -0.169320 0.000000
-0.224598 -0.109799 0.000000
-0.180392 -0.173086 0.000000
-0.226819 -0.105134 0.000000
-0.176777 -0.176777 0.000000
-0.228943 -0.100424 0.000000
-0.173086 -0.180392 0.000000
-0.230970 -0.095671 0.000000
-0.169320 -0.183931 0.000000
-0.232898 -0.090877 0.000000
-0.165483 -0.187391 0.000000
-0.234726 -0.086044 0.000000
-0.161575 -0.190771 0.000000
-0.236454 -0.081175 0.000000
-0.157598 -0.194070 0.000000
-0.238081 -0.076271 0.000000
-0.153553 -0.197285 0.000000
-0.239607 -0.071334 0.000000
-0.149443 -0.200416 0.000000
-0.241030 -0.066366 0.000000
-0.145269 -0.203462 0.000000
-0.242350 -0.061370 0.000000
-0.141033 -0.206421 0.000000
[...]
POINT_DATA 1240
SCALARS u1 float
LOOKUP_TABLE default
-0.0001
-0.0001
-0.0001
-0.0002
-0.0001
-0.0002
-0.0001
-0.0002
-0.0001
-0.0001
-0.0002
-0.0001
-0.0002
-0.0001
-0.0002
-0.0001
-0.0002
-0.0001
-0.0002
-0.0001
-0.0002
-0.0001
-0.0002
-0.0002
-0.0002
-0.0002
-0.0002
-0.0002
-0.0001
-0.0002
-0.0001
-0.0002
-0.0001
-0.0002
-0.0001
-0.0003
-9e-05
-0.0003
-8e-05
-0.0003
-7e-05
-6e-05
-0.0003
-6e-05
-0.0004
-5e-05
-0.0004
-5e-05
-0.0004
-5e-05
-0.0005
-5e-05
-0.0005
-5e-05
-0.0005
-5e-05
-0.0005
-5e-05
-0.0005
-5e-05
-0.0005
-6e-05
-0.0005
-0.0005
-6e-05
-0.0005
-6e-05
-0.0005
-7e-05
-0.0005
-7e-05
-0.0005
-8e-05
-0.0005
-8e-05
-0.0004
-8e-05
-0.0004
-9e-05
-0.0004
-9e-05
-0.0004
-9e-05
-0.0003
-8e-05
-0.0003
-8e-05
-0.0003
-7e-05
-0.0003
-7e-05
-0.0002
-6e-05
-6e-05
-0.0002
-5e-05
-0.0002
-4e-05
-0.0002
-3e-05
-0.0002
-2e-05
-0.0002
-2e-05
-0.0002
-1e-05
-0.0001
-6e-06
-0.0001
-1e-06
-0.0001
2e-06
-0.0001
5e-06
-0.0001
-0.0001
6e-06
-0.0001
5e-06
-0.0001
3e-06
-0.0002
-7e-07
-0.0002
-5e-06
-0.0002
-1e-05
-0.0002
-2e-05
-0.0002
-2e-05
-0.0002
-2e-05
-0.0002
-3e-05
-0.0002
-3e-05
-0.0002
-3e-05
-0.0002
-3e-05
-0.0002
-3e-05
-0.0002
-3e-05
-0.0002
-3e-05
-3e-05
-0.0002
-3e-05
-0.0002
-3e-05
-0.0002
-2e-05
-0.0001
-2e-05
-0.0001
-1e-05
-0.0001
-2e-06
-0.0001
9e-06
-0.0001
2e-05
-0.0001
4e-05
-0.0001
-9e-05
5e-05
-9e-05
7e-05
-9e-05
8e-05
-9e-05
9e-05
-9e-05
0.0001
-9e-05
0.0001
-9e-05
0.0001
-0.0001
0.0001
-0.0001
0.0001
-0.0001
9e-05
-0.0001
8e-05
-0.0001
7e-05
-0.0001
6e-05
-0.0001
5e-05
-0.0001
3e-05
-0.0001
2e-05
2e-05
-0.0001
1e-05
-0.0001
1e-05
-0.0001
1e-05
-0.0001
1e-05
-0.0001
2e-05
-0.0001
2e-05
-0.0001
3e-05
-0.0001
4e-05
-0.0001
5e-05
-9e-05
6e-05
-9e-05
7e-05
-8e-05
9e-05
-7e-05
0.0001
-6e-05
0.0001
-6e-05
0.0001
-5e-05
0.0002
-5e-05
0.0002
-4e-05
0.0002
-4e-05
0.0003
-4e-05
0.0003
-4e-05
0.0003
-4e-05
0.0003
-4e-05
0.0004
-5e-05
0.0004
-5e-05
0.0004
-6e-05
0.0004
-6e-05
0.0004
-7e-05
0.0004
-7e-05
0.0004
-7e-05
0.0004
-7e-05
0.0004
-7e-05
0.0004
-7e-05
0.0004
-7e-05
0.0003
-7e-05
0.0003
-7e-05
0.0003
-7e-05
0.0003
-7e-05
0.0002
-6e-05
0.0002
-6e-05
0.0002
-5e-05
0.0001
-4e-05
0.0001
-3e-05
9e-05
-1e-05
7e-05
1e-06
5e-05
2e-05
4e-05
3e-05
3e-05
4e-05
2e-05
6e-05
1e-05
6e-05
4e-06
7e-05
-2e-06
7e-05
-7e-06
7e-05
-1e-05
7e-05
-1e-05
6e-05
-1e-05
5e-05
-7e-06
4e-05
-4e-07
3e-05
8e-06
2e-05
-0.0001
-0.0001
-0.0001
-0.0001
-0.0002
-0.0001
-0.0002
-0.0001
-0.0002
-0.0001
-0.0002
-0.0001
-0.0002
-0.0001
-0.0002
-0.0001
-0.0002
-0.0001
-0.0002
-0.0002
-0.0002
-0.0002
-0.0002
-0.0002
-0.0002
-0.0002
-0.0002
-0.0002
-0.0001
-0.0002
-0.0001
-0.0003
-0.0001
-0.0003
-0.0001
-0.0003
-9e-05
-0.0004
-8e-05
-0.0004
-7e-05
-0.0004
-6e-05
-0.0004
-5e-05
-0.0005
-5e-05
-0.0005
-5e-05
-0.0005
-4e-05
-0.0005
-4e-05
-0.0005
-4e-05
-0.0005
-4e-05
-0.0005
-3e-05
-0.0005
-3e-05
-0.0005
-3e-05
-0.0005
-3e-05
-0.0005
-3e-05
-0.0005
-3e-05
-0.0005
-3e-05
-0.0004
-3e-05
-0.0004
-4e-05
-0.0004
-4e-05
-0.0004
-4e-05
-0.0003
-4e-05
-0.0003
-4e-05
-0.0003
-4e-05
-0.0003
-4e-05
-0.0002
-4e-05
-0.0002
-4e-05
-0.0002
-4e-05
-0.0002
-4e-05
-0.0002
-4e-05
-0.0002
-4e-05
-0.0002
-4e-05
-0.0002
-4e-05
-0.0001
-4e-05
-0.0001
-4e-05
-0.0001
-5e-05
-0.0001
-5e-05
-0.0001
-5e-05
-0.0001
-5e-05
-0.0001
-5e-05
-0.0002
-5e-05
-0.0002
-5e-05
-0.0002
-5e-05
-0.0002
-5e-05
-0.0002
-5e-05
-0.0002
-5e-05
-0.0002
-5e-05
-0.0002
-4e-05
-0.0002
-4e-05
-0.0002
-4e-05
-0.0002
-4e-05
-0.0002
-3e-05
-0.0002
-3e-05
-0.0002
-2e-05
-0.0002
-1e-05
-0.0002
-6e-07
-0.0002
1e-05
-0.0001
3e-05
-0.0001
4e-05
-0.0001
5e-05
-0.0001
7e-05
-0.0001
8e-05
-9e-05
9e-05
-9e-05
0.0001
-9e-05
0.0001
-8e-05
0.0001
-8e-05
0.0001
-8e-05
9e-05
-8e-05
9e-05
-7e-05
8e-05
-7e-05
7e-05
-7e-05
5e-05
-7e-05
4e-05
-7e-05
3e-05
-7e-05
2e-05
-7e-05
2e-05
-8e-05
1e-05
-8e-05
1e-05
-8e-05
1e-05
-8e-05
1e-05
-8e-05
2e-05
-9e-05
3e-05
-9e-05
3e-05
-9e-05
4e-05
-8e-05
5e-05
-8e-05
6e-05
-8e-05
7e-05
-8e-05
9e-05
-8e-05
0.0001
-8e-05
0.0001
-8e-05
0.0002
-8e-05
0.0002
-8e-05
0.0002
-9e-05
0.0002
-9e-05
0.0003
-9e-05
0.0003
-9e-05
0.0003
-9e-05
0.0003
-9e-05
0.0004
-0.0001
0.0004
-0.0001
0.0004
-9e-05
0.0004
-9e-05
0.0004
-9e-05
0.0004
-9e-05
0.0004
-9e-05
0.0004
-8e-05
0.0004
-8e-05
0.0004
-8e-05
0.0004
-8e-05
0.0003
-7e-05
0.0003
-7e-05
0.0003
-6e-05
0.0003
-5e-05
0.0002
-4e-05
0.0002
-2e-05
0.0002
-1e-05
0.0001
4e-06
0.0001
2e-05
9e-05
3e-05
7e-05
5e-05
6e-05
6e-05
4e-05
6e-05
3e-05
7e-05
2e-05
7e-05
1e-05
7e-05
7e-06
7e-05
-4e-07
6e-05
-6e-06
5e-05
-1e-05
4e-05
-1e-05
3e-05
-1e-05
2e-05
-7e-06
-1e-06
7e-06
-0.0001
-0.0001
-0.0001
-0.0001
-0.0001
-0.0001
-0.0002
-0.0001
-0.0001
-0.0002
-0.0002
-0.0001
-0.0001
-0.0002
-0.0002
-0.0001
-0.0001
-0.0001
-0.0002
-0.0002
-0.0001
-0.0001
-0.0002
-0.0002
-0.0001
-0.0001
-0.0002
-0.0002
-0.0001
-0.0001
-0.0002
-0.0002
-0.0001
-0.0001
-0.0002
-0.0002
-0.0001
-0.0001
-0.0002
-0.0002
-0.0001
-0.0002
-0.0002
-0.0002
-0.0002
-0.0002
-0.0002
-0.0002
-0.0002
-0.0002
-0.0002
-0.0002
-0.0002
-0.0002
-0.0002
-0.0001
-0.0002
-0.0002
-0.0001
-0.0001
-0.0002
-0.0002
-0.0001
-0.0001
-0.0002
-0.0003
-0.0001
-0.0001
-0.0003
-0.0003
-0.0001
-9e-05
-0.0003
-0.0003
-9e-05
-8e-05
-0.0003
-0.0003
-8e-05
-7e-05
-6e-05
-0.0004
-0.0004
-7e-05
-6e-05
-0.0004
-0.0004
-6e-05
-6e-05
-0.0004
-0.0004
-6e-05
-5e-05
-0.0004
-0.0004
-5e-05
-5e-05
-0.0005
-0.0005
-5e-05
-5e-05
-0.0005
-0.0005
-5e-05
-5e-05
-0.0005
-0.0005
-4e-05
-5e-05
-0.0005
-0.0005
-4e-05
-5e-05
-0.0005
-0.0005
-4e-05
-5e-05
-0.0005
-0.0005
-4e-05
-5e-05
-0.0005
-0.0005
-0.0005
-4e-05
-5e-05
-0.0005
-0.0005
-4e-05
-5e-05
-0.0005
-0.0005
-4e-05
-6e-05
-0.0005
-0.0005
-4e-05
-6e-05
-0.0005
-0.0005
-5e-05
-6e-05
-0.0005
-0.0005
-5e-05
-7e-05
-0.0004
-0.0004
-5e-05
-7e-05
-0.0004
-0.0004
-5e-05
-7e-05
-0.0004
-0.0004
-5e-05
-7e-05
-0.0004
-0.0003
-5e-05
-7e-05
-0.0003
-0.0003
-5e-05
-7e-05
-0.0003
-0.0003
-5e-05
-6e-05
-0.0003
-0.0003
-5e-05
-6e-05
-0.0003
-0.0002
-5e-05
-6e-05
-0.0002
-0.0002
-5e-05
-5e-05
-5e-05
-0.0002
-0.0002
-5e-05
-4e-05
-0.0002
-0.0002
-4e-05
-4e-05
-0.0002
-0.0002
-4e-05
-3e-05
-0.0002
-0.0002
-4e-05
-3e-05
-0.0002
-0.0002
-3e-05
-2e-05
-0.0002
-0.0002
-3e-05
-2e-05
-0.0002
-0.0001
-3e-05
-2e-05
-0.0001
-0.0001
-3e-05
-1e-05
-0.0001
-0.0001
-3e-05
-1e-05
-0.0001
-0.0001
-3e-05
-1e-05
-0.0001
-0.0001
-0.0001
-3e-05
-1e-05
-0.0001
-0.0001
-3e-05
-1e-05
-0.0001
-0.0001
-3e-05
-2e-05
-0.0001
-0.0002
-3e-05
-2e-05
-0.0002
-0.0002
-4e-05
-2e-05
-0.0002
-0.0002
-4e-05
-3e-05
-0.0002
-0.0002
-4e-05
-3e-05
-0.0002
-0.0002
-4e-05
-3e-05
-0.0002
-0.0002
-4e-05
-3e-05
-0.0002
-0.0002
-4e-05
-4e-05
-0.0002
-0.0002
-4e-05
-4e-05
-0.0002
-0.0002
-4e-05
-4e-05
-0.0002
-0.0002
-4e-05
-4e-05
-0.0002
-0.0002
-4e-05
-4e-05
-0.0002
-0.0002
-4e-05
-3e-05
-0.0002
-0.0002
-3e-05
-3e-05
-3e-05
-0.0002
-0.0002
-3e-05
-3e-05
-0.0002
-0.0002
-3e-05
-2e-05
-0.0002
-0.0002
-2e-05
-2e-05
-0.0002
-0.0001
-1e-05
-1e-05
-0.0001
-0.0001
-5e-07
-1e-06
-0.0001
-0.0001
1e-05
1e-05
-0.0001
-0.0001
2e-05
2e-05
-0.0001
-0.0001
4e-05
4e-05
-0.0001
-0.0001
5e-05
5e-05
-0.0001
-0.0001
-9e-05
7e-05
7e-05
-9e-05
-9e-05
8e-05
8e-05
-9e-05
-9e-05
9e-05
9e-05
-9e-05
-9e-05
0.0001
0.0001
-9e-05
-9e-05
0.0001
0.0001
-8e-05
-9e-05
0.0001
0.0001
-8e-05
-9e-05
0.0001
0.0001
-8e-05
-9e-05
0.0001
0.0001
-8e-05
-9e-05
9e-05
9e-05
-8e-05
-9e-05
8e-05
8e-05
-8e-05
-0.0001
7e-05
7e-05
-8e-05
-0.0001
6e-05
6e-05
-9e-05
-0.0001
4e-05
4e-05
-9e-05
-0.0001
3e-05
3e-05
-9e-05
-0.0001
2e-05
2e-05
-9e-05
-0.0001
2e-05
2e-05
1e-05
-9e-05
-0.0001
1e-05
1e-05
-0.0001
-0.0001
1e-05
1e-05
-0.0001
-0.0001
1e-05
1e-05
-0.0001
-0.0001
2e-05
2e-05
-0.0001
-0.0001
2e-05
2e-05
-0.0001
-0.0001
3e-05
3e-05
-9e-05
-0.0001
3e-05
4e-05
-9e-05
-0.0001
4e-05
4e-05
-9e-05
-9e-05
5e-05
5e-05
-9e-05
-9e-05
6e-05
7e-05
-8e-05
-8e-05
-8e-05
8e-05
8e-05
-8e-05
-7e-05
9e-05
0.0001
-8e-05
-7e-05
0.0001
0.0001
-8e-05
-6e-05
0.0001
0.0001
-7e-05
-6e-05
0.0002
0.0002
-7e-05
-6e-05
0.0002
0.0002
-7e-05
-6e-05
0.0002
0.0002
-7e-05
-6e-05
0.0002
0.0003
-7e-05
-6e-05
0.0003
0.0003
-7e-05
-6e-05
0.0003
0.0003
-8e-05
-6e-05
0.0003
0.0003
-8e-05
-6e-05
0.0003
0.0004
-8e-05
-7e-05
0.0004
0.0004
-8e-05
-7e-05
0.0004
0.0004
-8e-05
-7e-05
0.0004
0.0004
0.0004
-8e-05
-8e-05
0.0004
0.0004
-8e-05
-8e-05
0.0004
0.0004
-8e-05
-8e-05
0.0004
0.0004
-8e-05
-8e-05
0.0004
0.0004
-8e-05
-8e-05
0.0004
0.0004
-8e-05
-8e-05
0.0004
0.0004
-8e-05
-8e-05
0.0004
0.0003
-8e-05
-7e-05
0.0003
0.0003
-7e-05
-7e-05
0.0003
0.0003
-7e-05
-7e-05
0.0003
0.0003
-6e-05
-7e-05
0.0003
0.0002
-6e-05
-6e-05
0.0002
0.0002
-5e-05
-6e-05
0.0002
0.0002
-4e-05
-5e-05
0.0002
0.0002
-3e-05
-4e-05
0.0001
0.0001
-1e-05
-3e-05
0.0001
0.0001
3e-06
-1e-05
0.0001
8e-05
2e-05
2e-06
8e-05
7e-05
3e-05
2e-05
6e-05
5e-05
4e-05
3e-05
5e-05
4e-05
5e-05
4e-05
3e-05
3e-05
6e-05
5e-05
2e-05
2e-05
7e-05
6e-05
2e-05
9e-06
7e-05
7e-05
8e-06
3e-06
7e-05
7e-05
9e-07
-4e-06
7e-05
7e-05
-6e-06
-9e-06
6e-05
7e-05
-1e-05
-1e-05
5e-05
6e-05
-1e-05
-1e-05
4e-05
5e-05
-1e-05
-1e-05
3e-05
4e-05
-7e-06
-7e-06
2e-05
-1e-06
7e-06
3e-05
-9e-07
2e-05
8e-06
SCALARS u2 float
LOOKUP_TABLE default
-3e-05
-5e-05
-2e-05
-5e-05
-2e-05
-6e-05
-1e-05
-7e-05
-8e-06
-6e-06
-9e-05
-5e-06
-0.0001
-4e-06
-0.0001
-4e-06
-0.0001
-4e-06
-0.0001
-4e-06
-0.0001
-5e-06
-0.0001
-6e-06
-0.0001
-9e-06
-0.0001
-1e-05
-0.0001
-2e-05
-0.0001
-2e-05
-0.0001
-3e-05
-9e-05
-3e-05
-8e-05
-4e-05
-7e-05
-4e-05
-6e-05
-5e-05
-4e-05
-5e-05
-4e-05
-5e-05
-4e-05
-5e-05
-4e-05
-5e-05
-3e-05
-5e-05
-3e-05
-6e-05
-2e-05
-7e-05
-2e-05
-7e-05
-1e-05
-8e-05
-4e-06
-9e-05
4e-06
1e-05
-0.0001
2e-05
-0.0001
3e-05
-0.0001
3e-05
-0.0002
4e-05
-0.0002
4e-05
-0.0002
5e-05
-0.0002
5e-05
-0.0003
5e-05
-0.0003
5e-05
-0.0003
5e-05
-0.0003
4e-05
-0.0004
4e-05
-0.0004
3e-05
-0.0004
3e-05
-0.0004
-0.0004
3e-05
-0.0004
2e-05
-0.0004
2e-05
-0.0004
2e-05
-0.0004
2e-05
-0.0004
1e-05
-0.0004
1e-05
-0.0004
2e-05
-0.0004
2e-05
-0.0003
2e-05
-0.0003
2e-05
2e-05
-0.0003
3e-05
-0.0003
3e-05
-0.0002
4e-05
-0.0002
5e-05
-0.0002
6e-05
-0.0001
8e-05
-0.0001
9e-05
-0.0001
0.0001
-9e-05
0.0001
-8e-05
0.0001
-7e-05
0.0001
-6e-05
0.0002
-5e-05
0.0002
-4e-05
0.0002
-3e-05
0.0002
-3e-05
-3e-05
0.0002
-2e-05
0.0002
-3e-05
0.0001
-3e-05
0.0001
-4e-05
0.0001
-4e-05
0.0001
-6e-05
0.0001
-7e-05
9e-05
-8e-05
8e-05
-9e-05
8e-05
8e-05
-0.0001
8e-05
-0.0001
8e-05
-0.0001
9e-05
-0.0001
9e-05
-0.0001
0.0001
-0.0001
0.0001
-9e-05
0.0001
-8e-05
0.0001
-7e-05
0.0001
-5e-05
0.0002
-4e-05
0.0002
-2e-05
0.0002
-9e-06
0.0002
3e-06
0.0003
1e-05
0.0003
2e-05
3e-05
0.0003
3e-05
0.0003
3e-05
0.0004
4e-05
0.0004
4e-05
0.0004
4e-05
0.0004
4e-05
0.0005
4e-05
0.0005
4e-05
0.0005
4e-05
0.0005
3e-05
0.0005
3e-05
0.0005
3e-05
0.0005
2e-05
0.0005
2e-05
0.0005
1e-05
0.0004
8e-06
0.0004
5e-06
0.0004
3e-06
0.0004
2e-06
0.0003
3e-06
0.0003
6e-06
0.0003
1e-05
0.0003
1e-05
0.0002
2e-05
0.0002
3e-05
0.0002
3e-05
0.0002
4e-05
0.0002
5e-05
0.0001
6e-05
0.0001
6e-05
0.0001
7e-05
0.0001
8e-05
0.0001
8e-05
0.0001
9e-05
0.0001
9e-05
0.0001
9e-05
0.0001
9e-05
0.0001
9e-05
0.0001
9e-05
0.0001
9e-05
0.0001
8e-05
0.0001
8e-05
0.0001
7e-05
0.0002
7e-05
0.0002
6e-05
0.0002
6e-05
0.0002
6e-05
0.0002
6e-05
0.0002
6e-05
0.0002
6e-05
0.0002
6e-05
0.0002
6e-05
0.0002
6e-05
0.0002
6e-05
0.0001
6e-05
0.0001
6e-05
0.0001
7e-05
0.0001
8e-05
9e-05
-6e-05
-4e-05
-8e-05
-3e-05
-9e-05
-2e-05
-0.0001
-9e-06
-0.0001
-3e-06
-0.0001
5e-07
-0.0001
3e-06
-0.0001
6e-06
-0.0001
8e-06
-0.0001
1e-05
-0.0001
1e-05
-0.0001
1e-05
-0.0001
2e-05
-0.0001
2e-05
-9e-05
2e-05
-8e-05
2e-05
-7e-05
2e-05
-6e-05
1e-05
-5e-05
1e-05
-5e-05
1e-05
-5e-05
9e-06
-5e-05
7e-06
-5e-05
5e-06
-6e-05
4e-06
-6e-05
3e-06
-7e-05
3e-06
-8e-05
4e-06
-9e-05
4e-06
-0.0001
4e-06
-0.0001
5e-06
-0.0001
5e-06
-0.0001
5e-06
-0.0002
6e-06
-0.0002
5e-06
-0.0002
4e-06
-0.0002
3e-06
-0.0003
7e-07
-0.0003
-1e-06
-0.0003
-3e-06
-0.0004
-5e-06
-0.0004
-6e-06
-0.0004
-6e-06
-0.0004
-6e-06
-0.0004
-6e-06
-0.0004
-4e-06
-0.0004
-3e-06
-0.0004
-5e-07
-0.0004
2e-06
-0.0004
4e-06
-0.0004
7e-06
-0.0004
1e-05
-0.0004
1e-05
-0.0004
2e-05
-0.0003
2e-05
-0.0003
3e-05
-0.0003
4e-05
-0.0003
5e-05
-0.0002
6e-05
-0.0002
8e-05
-0.0002
9e-05
-0.0002
0.0001
-0.0001
0.0001
-0.0001
0.0001
-9e-05
0.0001
-8e-05
0.0002
-7e-05
0.0002
-6e-05
0.0002
-5e-05
0.0002
-4e-05
0.0002
-4e-05
0.0001
-3e-05
0.0001
-3e-05
0.0001
-2e-05
0.0001
-3e-05
0.0001
-3e-05
0.0001
-4e-05
9e-05
-4e-05
8e-05
-5e-05
8e-05
-6e-05
8e-05
-8e-05
8e-05
-9e-05
8e-05
-0.0001
9e-05
-0.0001
0.0001
-0.0001
0.0001
-0.0001
0.0001
-0.0001
0.0001
-0.0001
0.0001
-9e-05
0.0001
-8e-05
0.0002
-7e-05
0.0002
-6e-05
0.0002
-4e-05
0.0002
-3e-05
0.0003
-1e-05
0.0003
6e-07
0.0003
1e-05
0.0003
2e-05
0.0004
3e-05
0.0004
3e-05
0.0004
4e-05
0.0004
4e-05
0.0005
5e-05
0.0005
5e-05
0.0005
5e-05
0.0005
5e-05
0.0005
5e-05
0.0005
6e-05
0.0005
6e-05
0.0005
6e-05
0.0005
6e-05
0.0004
6e-05
0.0004
6e-05
0.0004
6e-05
0.0004
5e-05
0.0004
5e-05
0.0003
5e-05
0.0003
5e-05
0.0003
5e-05
0.0002
5e-05
0.0002
5e-05
0.0002
5e-05
0.0002
5e-05
0.0002
5e-05
0.0001
5e-05
0.0001
5e-05
0.0001
5e-05
0.0001
5e-05
0.0001
5e-05
0.0001
5e-05
0.0001
5e-05
0.0001
4e-05
0.0001
4e-05
0.0001
4e-05
0.0001
4e-05
0.0001
4e-05
0.0001
4e-05
0.0001
4e-05
0.0001
4e-05
0.0002
4e-05
0.0002
4e-05
0.0002
4e-05
0.0002
4e-05
0.0002
4e-05
0.0002
5e-05
0.0002
5e-05
0.0002
5e-05
0.0002
6e-05
0.0002
6e-05
0.0002
7e-05
0.0001
8e-05
0.0001
9e-05
0.0001
0.0001
-4e-05
-5e-05
-5e-05
-4e-05
-3e-05
-6e-05
-6e-05
-3e-05
-2e-05
-7e-05
-7e-05
-2e-05
-1e-05
-9e-05
-9e-05
-1e-05
-7e-06
-5e-06
-0.0001
-0.0001
-5e-06
-3e-06
-0.0001
-0.0001
-2e-06
-2e-06
-0.0001
-0.0001
3e-07
-9e-07
-0.0001
-0.0001
2e-06
-6e-08
-0.0001
-0.0001
4e-06
3e-07
-0.0001
-0.0001
5e-06
2e-07
-0.0001
-0.0001
6e-06
-5e-07
-0.0001
-0.0001
6e-06
-2e-06
-0.0001
-0.0001
6e-06
-4e-06
-0.0001
-0.0001
6e-06
-7e-06
-0.0001
-0.0001
4e-06
-1e-05
-9e-05
-9e-05
3e-06
-1e-05
-8e-05
-8e-05
8e-07
-2e-05
-7e-05
-7e-05
-1e-06
-2e-05
-6e-05
-6e-05
-4e-06
-2e-05
-5e-05
-5e-05
-5e-05
-6e-06
-2e-05
-5e-05
-5e-05
-7e-06
-2e-05
-5e-05
-5e-05
-8e-06
-2e-05
-5e-05
-5e-05
-9e-06
-2e-05
-5e-05
-5e-05
-8e-06
-2e-05
-6e-05
-6e-05
-7e-06
-2e-05
-6e-05
-6e-05
-5e-06
-1e-05
-7e-05
-7e-05
-3e-06
-8e-06
-8e-05
-8e-05
-5e-07
-3e-06
-9e-05
-9e-05
2e-06
2e-06
-0.0001
-0.0001
8e-06
5e-06
1e-05
-0.0001
-0.0001
9e-06
2e-05
-0.0001
-0.0001
1e-05
2e-05
-0.0001
-0.0002
1e-05
2e-05
-0.0002
-0.0002
2e-05
3e-05
-0.0002
-0.0002
2e-05
3e-05
-0.0002
-0.0002
2e-05
3e-05
-0.0003
-0.0003
2e-05
3e-05
-0.0003
-0.0003
2e-05
3e-05
-0.0003
-0.0003
1e-05
3e-05
-0.0003
-0.0003
1e-05
3e-05
-0.0004
-0.0004
1e-05
3e-05
-0.0004
-0.0004
9e-06
2e-05
-0.0004
-0.0004
7e-06
2e-05
-0.0004
-0.0004
6e-06
2e-05
-0.0004
-0.0004
-0.0004
5e-06
1e-05
-0.0004
-0.0004
4e-06
1e-05
-0.0004
-0.0004
5e-06
1e-05
-0.0004
-0.0004
6e-06
1e-05
-0.0004
-0.0004
7e-06
1e-05
-0.0004
-0.0004
8e-06
1e-05
-0.0004
-0.0004
1e-05
1e-05
-0.0004
-0.0004
1e-05
1e-05
-0.0004
-0.0004
2e-05
2e-05
-0.0004
-0.0003
2e-05
2e-05
-0.0003
-0.0003
2e-05
2e-05
3e-05
-0.0003
-0.0003
3e-05
3e-05
-0.0003
-0.0003
4e-05
4e-05
-0.0002
-0.0002
5e-05
5e-05
-0.0002
-0.0002
6e-05
6e-05
-0.0002
-0.0002
8e-05
8e-05
-0.0002
-0.0001
9e-05
9e-05
-0.0001
-0.0001
0.0001
0.0001
-0.0001
-0.0001
0.0001
0.0001
-0.0001
-9e-05
0.0001
0.0001
-8e-05
-7e-05
0.0001
0.0001
-7e-05
-6e-05
0.0002
0.0002
-6e-05
-5e-05
0.0002
0.0002
-5e-05
-5e-05
0.0002
0.0002
-4e-05
-4e-05
0.0002
0.0002
-4e-05
-3e-05
0.0002
0.0002
-3e-05
-3e-05
-3e-05
0.0001
0.0001
-3e-05
-2e-05
0.0001
0.0001
-2e-05
-3e-05
0.0001
0.0001
-3e-05
-3e-05
0.0001
0.0001
-3e-05
-4e-05
0.0001
0.0001
-4e-05
-4e-05
0.0001
0.0001
-4e-05
-5e-05
9e-05
9e-05
-5e-05
-7e-05
8e-05
8e-05
-7e-05
-8e-05
8e-05
8e-05
-8e-05
-9e-05
8e-05
8e-05
8e-05
-9e-05
-0.0001
8e-05
8e-05
-0.0001
-0.0001
8e-05
9e-05
-0.0001
-0.0001
9e-05
9e-05
-0.0001
-0.0001
0.0001
0.0001
-0.0001
-0.0001
0.0001
0.0001
-0.0001
-0.0001
0.0001
0.0001
-0.0001
-9e-05
0.0001
0.0001
-9e-05
-8e-05
0.0001
0.0001
-8e-05
-7e-05
0.0002
0.0002
-7e-05
-5e-05
0.0002
0.0002
-5e-05
-4e-05
0.0002
0.0002
-4e-05
-2e-05
0.0002
0.0002
-3e-05
-1e-05
0.0002
0.0002
-1e-05
1e-06
0.0003
0.0003
7e-07
1e-05
0.0003
0.0003
1e-05
2e-05
3e-05
0.0003
0.0003
2e-05
3e-05
0.0004
0.0004
3e-05
3e-05
0.0004
0.0004
3e-05
4e-05
0.0004
0.0004
4e-05
4e-05
0.0004
0.0004
4e-05
4e-05
0.0004
0.0005
4e-05
4e-05
0.0005
0.0005
4e-05
4e-05
0.0005
0.0005
5e-05
4e-05
0.0005
0.0005
5e-05
4e-05
0.0005
0.0005
5e-05
4e-05
0.0005
0.0005
0.0005
5e-05
4e-05
0.0005
0.0005
5e-05
4e-05
0.0005
0.0005
5e-05
3e-05
0.0005
0.0005
5e-05
3e-05
0.0005
0.0004
4e-05
3e-05
0.0004
0.0004
4e-05
2e-05
0.0004
0.0004
4e-05
2e-05
0.0004
0.0004
4e-05
2e-05
0.0004
0.0003
4e-05
2e-05
0.0003
0.0003
4e-05
2e-05
0.0003
0.0003
3e-05
2e-05
0.0003
0.0003
4e-05
2e-05
0.0002
0.0002
4e-05
3e-05
0.0002
0.0002
4e-05
3e-05
0.0002
0.0002
4e-05
4e-05
4e-05
0.0002
0.0002
4e-05
4e-05
0.0002
0.0002
5e-05
5e-05
0.0002
0.0001
5e-05
6e-05
0.0001
0.0001
5e-05
6e-05
0.0001
0.0001
6e-05
6e-05
0.0001
0.0001
6e-05
7e-05
0.0001
0.0001
6e-05
7e-05
0.0001
0.0001
6e-05
7e-05
0.0001
0.0001
6e-05
8e-05
0.0001
0.0001
6e-05
8e-05
0.0001
0.0001
6e-05
8e-05
0.0001
0.0001
6e-05
7e-05
0.0001
0.0001
6e-05
7e-05
0.0001
0.0001
5e-05
7e-05
0.0001
0.0001
5e-05
7e-05
0.0001
0.0001
5e-05
6e-05
0.0001
0.0001
5e-05
6e-05
0.0002
0.0002
5e-05
6e-05
0.0002
0.0002
5e-05
5e-05
0.0002
0.0002
5e-05
5e-05
0.0002
0.0002
5e-05
5e-05
0.0002
0.0002
5e-05
5e-05
0.0002
0.0002
5e-05
5e-05
0.0002
0.0002
5e-05
5e-05
0.0002
0.0002
5e-05
5e-05
0.0002
0.0002
5e-05
6e-05
0.0002
0.0002
6e-05
6e-05
0.0002
0.0002
6e-05
6e-05
0.0001
0.0001
7e-05
6e-05
0.0001
0.0001
8e-05
7e-05
0.0001
9e-05
0.0001
0.0001
8e-05
0.0001
9e-05
SCALARS strain_1 float
LOOKUP_TABLE default
-0.000119
-0.000217
-0.000193
-0.000061
-0.000153
-0.000093
-0.000103
-0.000132
-0.000196
-0.000303
-0.000326
-0.000349
-0.000396
-0.000368
-0.000568
-0.000390
-0.000783
-0.000372
-0.001013
-0.000309
-0.001290
-0.000153
-0.001731
-0.000070
-0.002208
0.000181
-0.002715
0.000268
-0.003209
0.000600
-0.003873
0.001025
-0.004685
0.001482
-0.005499
0.002046
-0.006364
0.002533
-0.007232
0.003205
-0.008356
-0.009436
0.003970
-0.010492
0.004842
-0.011829
0.005740
-0.013221
0.006812
-0.014497
0.007979
-0.016065
0.009227
-0.017621
0.010520
-0.019199
0.011899
-0.020810
0.013357
-0.022711
0.015016
-0.024340
0.016741
0.018552
-0.026235
0.020455
-0.028273
0.022403
-0.030103
0.024429
-0.032103
0.026770
-0.034187
0.028841
-0.036239
0.031096
-0.038412
0.033474
-0.040551
0.036011
-0.042785
0.038437
-0.044912
0.040996
-0.047194
0.043689
-0.049370
0.046291
-0.051513
0.048830
-0.053635
0.051507
-0.055884
-0.058079
0.054201
-0.060296
0.056877
-0.062348
0.059471
-0.064471
0.062210
-0.066586
0.064880
-0.068487
0.067400
-0.070547
0.070035
-0.072454
0.072646
-0.074279
0.075066
-0.076012
0.077554
-0.077713
0.079752
0.082048
-0.079403
0.084336
-0.080982
0.086451
-0.082442
0.088385
-0.083788
0.090172
-0.085121
0.092165
-0.086211
0.093735
-0.087370
0.095338
-0.088392
0.096724
-0.089294
0.098021
-0.090054
0.099159
-0.090826
0.100262
-0.091453
0.101048
-0.091837
0.101749
-0.092294
0.102483
-0.092474
0.102909
-0.092536
-0.092647
0.103187
-0.092607
0.103295
-0.092291
0.103254
-0.092074
0.103263
-0.091603
0.102946
-0.091163
0.102546
-0.090392
0.101969
-0.089628
0.101260
-0.088837
0.100432
-0.087887
0.099588
0.098465
-0.086855
0.097284
-0.085737
0.095962
-0.084479
0.094422
-0.083147
0.093117
-0.081905
0.091376
-0.080487
0.089797
-0.078733
0.087971
-0.077284
0.086007
-0.075526
0.084120
-0.073917
0.082115
-0.072074
0.079990
-0.070183
0.077906
-0.068300
0.075684
-0.066493
0.073557
-0.064518
0.071200
-0.062540
-0.060513
0.068839
-0.058506
0.066622
-0.056484
0.064260
-0.054394
0.062025
-0.052446
0.059596
-0.050330
0.057340
-0.048432
0.055003
-0.046296
0.052727
-0.044332
0.050440
-0.042394
0.047995
-0.040350
0.045771
-0.038307
0.043538
-0.036439
0.041382
-0.034491
0.039243
-0.032673
0.037122
-0.030947
0.035127
-0.029175
0.033092
-0.027411
0.031139
-0.025712
0.029281
-0.024106
0.027406
-0.022410
0.025619
-0.020979
0.023833
-0.019545
0.022135
-0.018026
0.020612
-0.016632
0.018990
-0.015375
0.017627
-0.014144
0.016143
-0.012982
0.014777
-0.011884
0.013530
-0.010800
0.012288
-0.009769
0.011237