<?xml version="1.0" encoding="UTF-8"?>
<VTKFile type="UnstructuredGrid" version="0.1" byte_order="LittleEndian">
<UnstructuredGrid>
<Piece NumberOfPoints="9300" NumberOfCells="16740">
<PointData>
<DataArray type="Float64" Name="Stress_1" Format="ascii">
7792868.986375119
7772766.925716927
7753788.708249569
7734323.406035755
7926057.523437197
7907924.250648151
7889785.611032793
8058766.353832576
8041525.129645378
8190789.35657012
8271643.215206325
8244015.382891117
8217607.700763601
8399610.154600156
8373959.265893685
8348410.293983515
8527021.129338682
8502407.244251538
8653727.72569096
7865414.520762888
7893216.680457454
7922250.432240318
7950879.457706341
7723019.0198004
7753037.925699981
7782985.731693888
7580083.871581151
7611068.664571709
7436371.288904431
7320126.807434642
7307916.230922726
7296738.75650211
7284978.575113862
7458735.644589
7448423.402152731
7438082.982514074
7596863.066092979
7587352.189358438
7371471.775585152
7392512.9425346125
7414695.042712736
7224930.4946648525
7248139.134641504
7271202.093404877
7077897.141207823
7101943.492252063
6930098.784206997
8756741.441476872
8721646.29584163
8687846.044811849
8879189.968852328
8846154.863815458
8813214.658755017
9001104.211520175
8969170.28112848
9122299.080362437
8366381.412040047
8401048.779998641
8437033.199944247
8472686.650232151
8228532.747195313
8265455.793820814
8302384.517587106
8090102.7016064115
8128130.804215571
6854912.977333604
6850743.891164999
6847469.358672179
6843485.606798708
6998768.78060162
6996428.081750034
6993978.365952017
7142195.873792568
7140522.756566492
6880546.199608132
6896539.9423519205
6913621.911438104
6731857.576662023
6749987.057536466
6767914.175374917
6582752.140615867
6601608.481414501
6432906.068489089
9245504.8242522
9203613.703938456
9163083.552654937
9362947.966604188
9323115.192059252
9283473.697871376
9479783.149611864
9441188.802374052
9595880.961114625
8872100.3570834
8914235.002774283
8957733.87659584
9000980.192348959
8739627.907590292
8784065.395454565
8828517.200395541
8606562.810038656
8652185.31237818
6394682.909460629
6399714.276434064
6405529.49179801
6410452.488367553
6544721.197312329
6551560.8047340205
6558135.400800516
6694429.243345112
6701731.939967558
6402252.3191062
6412077.183535924
6422832.671302485
6250613.816408799
6262453.9678234225
6274013.74339502
6098550.921538448
6110973.159351981
5945676.219829599
9740708.558011038
9691511.098084167
9643780.705745075
9852339.312513093
9805278.382397344
9758450.558339493
9963362.497606758
9917637.54469619
1.007363293268723E7
9382895.262664685
9432618.602138259
9483814.324647374
9534833.937375506
9256278.109460197
9308363.137950446
9360519.464512186
9129045.063969914
9182421.799140293
5949313.420094818
5962185.664010379
5974619.216031002
5986459.650822413
6103856.251010918
6117651.180493514
6130641.022018301
6257471.272608386
6271264.855955434
5636288.723753793
5614675.29258001
5593581.15234445
5572939.266515345
5753290.334609641
5733539.964110235
5712168.037886392
5870130.9165104
5850099.421745612
5907168.617498704
5919709.72005969
5933090.96578717
5761112.917644164
5776045.063835579
5790063.559094011
5615362.036777059
5630548.252601989
5468851.984265095
1.024015944315047E7
1.0183652465019936E7
1.0128692056513652E7
1.0345721132425502E7
1.0291399696915152E7
1.0237361954734446E7
1.0450660334190503E7
1.0397785744335959E7
1.0554840840663068E7
9899172.935331607
9956225.628910255
1.001482984937121E7
1.007333103685765E7
9778453.917551499
9837897.51998207
9897478.62524838
9657070.493670508
9717917.878092287
5272677.630301514
5236848.16422922
5202766.16247616
5169356.224088962
5373985.212625935
5339548.241802456
5305011.994563177
5473987.963709161
5440767.3929838985
5454314.521450483
5458910.782221025
5464297.072691666
5305720.918579142
5311417.598595618
5317568.885137511
5155697.808256872
5162692.419087909
5004434.324060558
1.0741359681889435E7
1.0678106487334238E7
1.0616483913657665E7
1.0841224964453049E7
1.078016689667054E7
1.0719495332855012E7
1.0940389064029016E7
1.0880899438329171E7
1.1038770291615007E7
1.0419320460597692E7
1.0483661903666932E7
1.0549626699900825E7
1.061556552209174E7
1.0304745556123031E7
1.0371518199691698E7
1.0438475094999503E7
1.0189473123004775E7
1.0257750725873824E7
4851786.466346849
4825556.893106001
4801222.363447817
4777461.26709799
4958966.423187088
4934246.909095902
4909659.571203522
5064945.42059805
5041689.464257664
4954631.223794702
4970393.409364253
4987496.368414955
4821614.764672473
4838974.864125875
4856128.702450094
4687285.324190071
4705643.577875458
4551586.222407377
1.1247148725894352E7
1.1176532807882199E7
1.1107629568421088E7
1.1340310551861426E7
1.1271989419095585E7
1.1204030764333824E7
1.143282333652039E7
1.1366124877664305E7
1.1524557298180228E7
1.0942639112196652E7
1.1014122778646076E7
1.1087334412781633E7
1.1160587936750084E7
1.0834388285051147E7
1.0908363667501006E7
1.098258631683769E7
1.0725420077707045E7
1.080101446233509E7
4436628.830961879
4422136.96301667
4409501.707396595
4397300.703813757
4551489.063553352
4538521.921823106
4525795.789456932
4665221.93711346
4653717.582041979
4497147.787882322
4514098.458827335
4532874.6895915475
4370112.927950965
4388797.640610933
4407562.667128188
4241976.87556909
4262013.274534411
4112415.302556008
1.1751270292943293E7
1.1674500596118432E7
1.1599479489087604E7
1.1838801032227185E7
1.1764295048979053E7
1.169025673021564E7
1.1925585348102778E7
1.1852819451818844E7
1.2011576448057711E7
1.1467807180192694E7
1.1546484291356836E7
1.162692856955698E7
1.1707485506734984E7
1.1366209948183516E7
1.144739411474794E7
1.1528870084147695E7
1.1263847579740584E7
1.1346749599382076E7
4044511.780931722
4038279.122678589
4033764.022127996
4029578.086171575
4163216.6381890923
4158531.236630564
4153959.305884378
4280926.2791930735
4277573.797658379
4071678.828281203
4083955.2253449494
4098051.664889576
3944629.520678266
3958671.2588806786
3972690.7218698505
3816549.0394967943
3831918.307993919
3687096.290607313
1.2256610160452068E7
1.217367409997069E7
1.2092548116921676E7
1.2338135202794854E7
1.2257533635453917E7
1.2177391951095182E7
1.2418927870214876E7
1.2340114739959035E7
1.2498907764194226E7
1.1993824851610491E7
1.2079686616814747E7
1.2167413032139376E7
1.2255318630637879E7
1.189919358889355E7
1.1987629549367981E7
1.2076403452280447E7
1.18037932645752E7
1.1894050767372204E7
3666290.497460999
3667976.4829009054
3671301.2706173826
3674844.0589423724
3788402.7590816854
3791641.017415733
3794947.5115145277
3909621.5467443005
3914096.5634032222
3671844.01604379
3675672.232220087
3681232.7514474066
3541131.0667688753
3546691.2500619115
3552232.896256987
3409445.3610159094
3416278.816819272
3276416.880544208
1.2766811309666878E7
1.2676191225289151E7
1.2587453748017628E7
1.2840593695817374E7
1.2752338220796494E7
1.2664602525416851E7
1.2913642043141842E7
1.2827277431621706E7
1.2985880459239276E7
1.252082586299484E7
1.2613563088346796E7
1.270822882535022E7
1.2803141754835503E7
1.2433167462505106E7
1.2528514329630688E7
1.2624254621648323E7
1.2344703701615758E7
1.2441977557862863E7
3302705.2802100596
3311978.0474586915
3322784.6138033364
3333686.0449182964
3427700.241071639
3438494.729121032
3449315.8243040256
3551867.0806400673
3563798.3122957572
3281989.115476264
3278933.7500352124
3277556.706992932
3149342.2921428955
3148024.145046328
3146618.4745857
3015811.8015892264
3015653.006581032
2881039.352213534
1.327328022689415E7
1.3176097123967558E7
1.3080864245733596E7
1.3340159492474549E7
1.3245418890372787E7
1.3151201600956462E7
1.3406329314364566E7
1.3313553023738524E7
1.3471707182456637E7
1.3044987880296826E7
1.314521439374147E7
1.3247475850282164E7
1.3350040145400396E7
1.296520533741632E7
1.3068123612063449E7
1.3171483868018767E7
1.2884632983515786E7
1.2989585594993899E7
2952822.1023091394
2969833.7182218814
2988236.4590246268
3006652.8922289223
3080654.799297036
3099153.946604053
3117615.482889648
3207732.040430641
3227247.605614854
2912679.347762627
2901088.2523029577
2891001.811119062
2776572.322106812
2766699.216411435
2756647.7035151958
2639698.3783889897
2630847.401759959
2501675.439042225
1.3773160887267826E7
1.367129552516703E7
1.3571349635910865E7
1.3834772777815849E7
1.3735320102407083E7
1.3636437173493613E7
1.3895592364003861E7
1.3798179763089918E7
1.395561286816256E7
1.357053386367136E7
1.3677227474246513E7
1.3785951360567689E7
1.3895015824611073E7
1.3497910813906413E7
1.3607270782142108E7
1.3717143653162977E7
1.3424438559423646E7
1.3535945364964105E7
2619287.9509186824
2643391.6694361595
2668850.31548376
2694213.312665039
2749207.3103198726
2774802.6039975616
2800358.3930268902
2878453.780173266
2905008.9939533295
2560992.931344255
2540289.667355739
2520993.187105702
2421197.5708158407
2402154.043513752
2382967.3083088393
2280666.078304778
2262594.5454229033
2139015.0483956304
1.427554418010498E7
1.4167449248912651E7
1.406136464519558E7
1.4330124129644781E7
1.422446978340385E7
1.4119473597778471E7
1.438388342450921E7
1.4280355836183213E7
1.4436830730030097E7
1.409482040458551E7
1.4207478830725364E7
1.4322190887504969E7
1.4437266909980275E7
1.402905901246411E7
1.4144464951878004E7
1.4260302170816923E7
1.3962497703569945E7
1.4080069418334402E7
2301773.6721627265
2332725.913175052
2364914.8103160593
2396882.0401641256
2433303.685535741
2465721.242130843
2498046.433971628
2564247.7722457396
2597525.0289866095
2216565.087125597
2189828.6115866043
2164474.9008182567
2076335.948128759
2051291.4830571713
2026024.1007883272
1935476.4544020356
1911291.439691498
1793594.8938920323
1.4775356267719217E7
1.4661016037142668E7
1.4548744716422841E7
1.4822560123729829E7
1.471072241072834E7
1.4599524210682081E7
1.486897291974492E7
1.4759298600596087E7
1.491457736433434E7
1.4615044300882362E7
1.4733723821408262E7
1.485455014026612E7
1.4975772434174106E7
1.4556661844643805E7
1.4678112600222489E7
1.4800083502717026E7
1.4497432714421324E7
1.462113163929177E7
2003107.4548903657
2039798.997695913
2077628.1988907526
2115174.6897735777
2134989.2027659044
2173150.0481365616
2211121.2182350038
2266387.474706267
2305269.053748356
1894883.3103975223
1860365.481315276
1827087.5101585595
1752604.0601761132
1719757.6746569239
1686626.7444919643
1609800.8066200865
1577706.5276681404
1466061.3492448255
1.5269230755309118E7
1.5149516842356127E7
1.5031855035821293E7
1.5309685208902424E7
1.5192454925856601E7
1.507588096135427E7
1.534930966268094E7
1.523429688277252E7
1.5388119235019833E7
1.5132326286797352E7
1.5256503681356784E7
1.5382832897408001E7
1.550958485850056E7
1.5081054076860959E7
1.520798891507626E7
1.5335518973211488E7
1.5028880201119836E7
1.5158160480738482E7
1716931.2146746106
1760498.1940244697
1805171.4441615203
1849438.1158516027
1850245.958053466
1895269.4851372484
1940130.9447379645
1983137.3333747012
2028848.9105002903
1592558.7264533138
1549734.9986091927
1508066.2815877884
1447988.7925903252
1406792.2748727
1365334.7754104494
1302938.224999148
1262441.4343736672
1156978.657478268
1.576108841791608E7
1.5635224487036219E7
1.5511469038884232E7
1.5793778213440087E7
1.567043645978115E7
1.5547779593395308E7
1.5825649621905904E7
1.5704592173606604E7
1.5856699358672785E7
1.5644291876451498E7
1.5773901804623289E7
1.5905681658678852E7
1.6037886368014798E7
1.5600261345069453E7
1.573269695654725E7
1.5865682792363284E7
1.5555377802320175E7
1.5690195142028036E7
1449876.951300039
1499484.3601971085
1550079.1136907397
1600156.4205375742
1583540.3175259377
1634598.1676957055
1685406.398520784
1716879.451338504
1768500.3983459922
1297880.9168569518
1250301.5983598034
1203847.789503405
1154693.0644056867
1108773.5892129985
1062497.626022492
1011134.4773446666
965779.4805026721
866769.0207885196
1.6249004387183098E7
1.6116663479559701E7
1.5986464850476865E7
1.6273321111476151E7
1.6143552162584497E7
1.6014456996351663E7
1.6296853076042112E7
1.6169427721365707E7
1.6319585376831567E7
1.6152768357839165E7
1.6286812998610929E7
1.642305033394112E7
1.6559708807298139E7
1.6115371758883025E7
1.625224648623927E7
1.6389731162226005E7
1.6077085837566994E7
1.6216403388319021E7
1198289.5462870758
1254393.2675690982
1311371.4924563393
1367711.9859165829
1332645.0232722037
1390179.3359399864
1447417.5732697984
1466756.675124547
1524754.0305922474
1028353.5475056054
974012.6665287947
920662.3458957276
884670.5642821065
831957.6323717607
778843.9290254809
740711.9248317566
688457.4991464689
596036.0997089365
1.6727303111354774E7
1.6589796283854391E7
1.645445709923228E7
1.6744394102363985E7
1.6609448227925463E7
1.647524804828146E7
1.6760635335404392E7
1.66281239279392E7
1.6776060190288091E7
1.665505664454331E7
1.679319384511412E7
1.6933495029643945E7
1.707417382598837E7
1.6624169535103275E7
1.6765135497030111E7
1.690672731157963E7
1.6592382581327382E7
1.673583460512951E7
964956.0961781215
1027211.5562052366
1090224.721821784
1152494.718851013
1099523.1054978932
1163198.4309457082
1226517.0509944863
1233932.7503089448
1297963.010362209
776671.8305646115
716115.6647835877
656410.2490070292
633168.8386748733
574227.1331985586
514802.4584505242
489496.8844636573
430868.7304891792
345200.40017721755
1.720380019300969E7
1.7059556287555523E7
1.6917562771345098E7
1.7212025816791654E7
1.7070193281993814E7
1.6929326797711287E7
1.7219224336130746E7
1.7079868600740332E7
1.7225452321800735E7
1.7154271549810797E7
1.7294834492997408E7
1.7437501178835914E7
1.758038722996953E7
1.7128450107174E7
1.727181449358856E7
1.741579319669046E7
1.7101740162204158E7
1.7247586345151395E7
748660.1113583288
817250.81795175
886467.7053460007
954815.7623595082
883512.0116180384
953490.1390006965
1023069.4239020456
1018278.0029185807
1088524.3607131282
544677.3598959785
477978.7448750916
412002.00460595853
401586.84938478365
336481.50671973446
270832.0864325548
258422.9954274065
193511.67130480663
114726.84249332441
1.7675391815570038E7
1.7523845280746028E7
1.7374426216003753E7
1.7673320263594948E7
1.752434061376663E7
1.7375720267772153E7
1.7670689417688385E7
1.752368146497797E7
1.7667456614830498E7
1.7998304998442262E7
1.7887129384764463E7
1.777715129747731E7
1.803228966847495E7
1.7924209400329832E7
1.7815041398769286E7
1.8066669616451517E7
1.795945818284295E7
1.8100300243106615E7
1.766299514148814E7
1.779975269396834E7
1.7938809918038055E7
1.8077933785887737E7
1.763633512945296E7
1.7776162431491993E7
1.7916606218851585E7
1.760878572923667E7
1.775098926432989E7
554899.9956054399
628248.7358902729
702129.3108584125
775040.3229695437
688348.9776662958
763094.8273404969
837358.0742388484
821810.7984126685
896702.9591625943
332251.7258320775
259669.99818691093
187679.17326296866
189976.95223228354
118963.46702156666
47343.8811144831
47711.14545623138
-23225.719541549635
-94995.65141026831
1.837996172008847E7
1.8286438189678386E7
1.819331970596893E7
1.8428983460791547E7
1.8337224997289352E7
1.8245427121895272E7
1.8477095293086894E7
1.8386764114597246E7
1.8524293823594134E7
1.815212134800834E7
1.828878432542006E7
1.8426746483037002E7
1.856487289627314E7
1.8128596442825466E7
1.8267160573770367E7
1.840710868248014E7
1.8103626930074207E7
1.824489380714449E7
375204.7626350196
454707.9696183488
534604.7688422687
613410.189146283
508565.91117594606
589426.5077400241
669768.4229314093
641998.6486833729
722922.7851929654
139686.23979066688
61508.947276088424
-16195.583461800328
-1365.8329665524402
-77983.25946469094
-155270.66442202294
-142309.49099950457
-218965.51727302917
-283603.0142841413
1.8817768785398684E7
1.871896215309366E7
1.8621586948527634E7
1.8858304134492327E7
1.876219261113164E7
1.86663861146281E7
1.8898607160748918E7
1.880429964735466E7
1.893806327906659E7
1.8680516982710306E7
1.8799909621776696E7
1.892083712204545E7
1.9041784343402162E7
1.864166667522515E7
1.876487535053215E7
1.888750901826743E7
1.8603655357991893E7
1.8728604950608324E7
217536.8685101166
301985.71911496774
386695.26844291086
470190.71430557064
349485.25274763786
435275.9840351887
520473.83109091374
481596.88833377813
567339.3676945257
-32705.751530575566
-116153.03323865053
-199264.60304106024
-172105.32947970004
-254017.27949910518
-336667.73462104495
-311315.20698329294
-393385.9777764666
-450782.59551174083
1.925349797575675E7
1.9147387800636098E7
1.904261607014451E7
1.928315998027195E7
1.9179721265420437E7
1.90766718224755E7
1.931254501247281E7
1.9211042635091946E7
1.9341206952173833E7
1.9140464161633424E7
1.9261400429762192E7
1.9383857703049198E7
1.9506502611318186E7
1.9108111016772836E7
1.9231977173048943E7
1.935636325522573E7
1.9075356466992527E7
1.920134960266475E7
80577.17633938906
169275.50265947072
258112.74131390848
345596.22429724276
210346.4024102484
300373.0111139826
389737.76264519955
340374.7907780233
430240.1352905512
-184627.94641573715
-273030.72739118355
-361225.68675757234
-321963.1548932085
-408847.1791894219
-496536.46029769036
-459021.0385290454
-546181.0665150494
-596247.0664443437
1.967076601669541E7
1.9559878733409498E7
1.945042999964316E7
1.969194333184912E7
1.9583860285351403E7
1.947620856045329E7
1.9712867887961134E7
1.9606821721219838E7
1.9733134120150488E7
1.9584772190916725E7
1.9708422558690198E7
1.9833601271614708E7
1.9958963780128658E7
1.9558937856937524E7
1.9685837172381982E7
1.981300336157155E7
1.9533072166222118E7
1.966214920557226E7
-35299.53190671729
56895.712513613296
149105.52992238663
239835.46586795474
91470.36373920523
184986.16086212607
277756.24982827867
218597.6883179395
311817.09340628097
-316636.3579907649
-409400.3661391662
-502076.5458688922
-451239.2886211049
-542485.9919257202
-634617.825129612
-585460.1831769135
-677109.8712306961
-719756.5423226937
2.007818257901794E7
1.9962108484937124E7
1.984749930068164E7
2.0090242010433704E7
1.9977012174308904E7
1.9864270935184143E7
2.0102053895430148E7
1.9990956592569195E7
2.0113284647752937E7
2.002618044126607E7
2.0149114179633327E7
2.027356902542617E7
2.0398245007547453E7
2.000418937907087E7
2.0130311720727008E7
2.0256768260784507E7
1.9981943887343876E7
2.011029193298143E7
-131773.12827866248
-36235.24053708296
59219.559953505275
153092.1545751162
-8176.46948532556
88682.16480478305
184726.23142196468
115853.02424862576
212296.49389523582
-425284.6272077279
-522867.6428532279
-620495.6231075791
-557527.0258578451
-653617.9642040821
-750649.7926929314
-689306.6169845128
-785896.1809712473
-821085.9251856776
2.046776205859998E7
2.0348519725427903E7
2.0230776384420678E7
2.0472511274886172E7
2.0356183650422726E7
2.0240355247655675E7
2.0477024677592278E7
2.036288296009447E7
2.048100237999453E7
2.0441286242792632E7
2.0567613875336066E7
2.0695484352104083E7
2.0823586888511214E7
2.042732607187911E7
2.055688614091261E7
2.0686823045155987E7
2.0413126576067615E7
2.054498334239013E7
-212950.37967291416
-112746.69943415528
-12772.810391682273
85438.29222011956
-91273.49507351239
10204.584697708495
110834.06868986138
30895.151018398126
131878.51712668853
-514336.1984213151
-615905.4166305291
-717623.4311174348
-643297.3704896547
-743389.6694925237
-844479.5866043151
-771728.959525571
-872411.1714846063
-900088.2933903844
2.0847056159855127E7
2.072395083865296E7
2.060235328933968E7
2.0843554351943854E7
2.072341520454702E7
2.0603788810654964E7
2.0839870649639197E7
2.0721982107770804E7
2.083571251715998E7
2.0843140484552994E7
2.09724108542003E7
2.1103236772060227E7
2.123429674784513E7
2.083697906181355E7
2.0969532031534236E7
2.1102480253019404E7
2.0830597682181455E7
2.0965515260298617E7
-268380.2916303922
-165708.70162167514
-63397.428899290855
37041.959468283414
-150890.4992490555
-46919.916641623386
56079.10510489249
-32789.76106139659
70506.4919030946
-583584.9473574371
-688297.9117846534
-793270.2786617877
-708383.9043697667
-811631.4554254628
-915951.2825499971
-832575.1010336238
-936520.9981573905
-956631.5992319876
2.1211766801905796E7
2.1085313845756885E7
2.0960389649195857E7
2.1200360264082026E7
2.107693789227326E7
2.0954041928225655E7
2.1188817738154016E7
2.1067707592762165E7
2.1176858964960236E7
2.123056624448112E7
2.1362465919492014E7
2.149594561859879E7
2.1629661074779514E7
2.1232140884620406E7
2.1367378454133254E7
2.1503035713948224E7
2.123350858436686E7
2.1371173468300838E7
-309180.07850875397
-202458.3831892041
-96234.3707158317
7967.360736977072
-194282.80564719182
-86299.27013692533
20685.014948098207
-78727.66482771643
28499.545432164727
-630391.6089074733
-738248.4955859635
-846461.0410498693
-750952.6459082657
-857385.0731292804
-964923.7552695746
-870860.5989432024
-978058.3817123929
-990630.4070757708
2.1561054123064067E7
2.143187712868941E7
2.130424367255581E7
2.154220645511016E7
2.141610211830266E7
2.129055281269743E7
2.152323780831846E7
2.1399506560848884E7
2.150390384934115E7
2.160026431813949E7
2.1735372779528238E7
2.1872069754743263E7
2.2008999076233875E7
2.16103467724738E7
2.1748838812817693E7
2.1887777279925924E7
2.162026150600882E7
2.176125036330778E7
-327921.74878713296
-218155.95393717714
-109016.99280220871
-1409.6171146293134
-216604.5793613763
-105468.47021714227
4605.2123661379765
-104468.8266589796
5788.920272960146
-657376.6626859162
-767463.4008957853
-878041.0204176789
-772614.110431757
-881437.0897854522
-991375.0839297955
-887099.0041818619
-996944.1267474401
-1002063.2429089043
2.1894651779001992E7
2.1763282049193718E7
2.1633471288317896E7
2.1868722309715852E7
2.1740459831801444E7
2.1612781138612095E7
2.184268387236575E7
2.1716843209293883E7
2.181632825466707E7
2.1956507725230902E7
2.209375436686939E7
2.223260540806911E7
2.2371676352627296E7
2.197424946772939E7
2.2114938069149498E7
2.2256078561708212E7
2.1991856208732888E7
2.213509726412565E7
-311822.54754843045
-203913.9634146694
-97285.40086718171
8420.508673523595
-209056.59044719033
-100541.00133887368
6571.22333429526
-105525.4149174625
2020.0601865788651
-242349.19151075798
-149053.4490116668
-56040.37362969392
37092.31896285765
-158896.0379344445
-64479.056555163996
27672.336545279482
-75366.12814895925
18170.23402608956
-671660.2612471593
-780797.051991875
-890420.3809798126
-778345.3073674856
-886348.916500574
-995965.2712307447
-884103.0123411019
-992833.7142236263
-990323.6986076714
2.2211460284264136E7
2.2078639767011795E7
2.1947371438490387E7
2.2178999500653982E7
2.2049317708023697E7
2.1920217879808802E7
2.214645317122641E7
2.2019221990320645E7
2.2113629757191755E7
2.2295812146196604E7
2.243510149286963E7
2.257598389410544E7
2.2717066453114793E7
2.2321311950082317E7
2.2464062528779935E7
2.2607279399694875E7
2.23466981621041E7
2.249205283686376E7
-256693.4043982431
-143022.20714360016
-29004.19158687393
85237.52835984621
-157684.5465414813
-43092.43662384981
69771.27132300509
-59707.16912516486
55343.90162677761
-579496.6778282428
-715760.5727613894
-852408.4909103976
-704556.1319348356
-840107.7318148955
-976389.952961648
-829743.4949871609
-964909.3781472665
-956605.244026055
2.2512721961996764E7
2.2378592728867516E7
2.2246008011958748E7
2.2473723777861677E7
2.2342751921886947E7
2.2212368963958137E7
2.243465410468033E7
2.230616810499146E7
2.2395352319432423E7
2.2621160443852425E7
2.2761185639674246E7
2.290280465652835E7
2.3044595083170425E7
2.2653318495743085E7
2.2796844693737533E7
2.294082700109516E7
2.2685376455996897E7
2.283153532974108E7
-216128.4261439316
-93548.4129713475
29683.225389976877
153018.55757714715
-114690.91831437
9160.068171016264
131670.94597132082
-13707.230742351618
110889.66646349599
-596641.5161371595
-716944.0584666793
-836616.0876319456
-697115.3668149149
-815967.2482578728
-936385.5475793176
-797810.2102735138
-916395.458757398
-900037.4323544406
2.2797575165534783E7
2.266241491988085E7
2.2528790590372648E7
2.2752188180174064E7
2.2620185940767627E7
2.248879861711509E7
2.270672392543488E7
2.2577235590240005E7
2.266106612629045E7
2.292584833679591E7
2.306735687585572E7
2.3210450618575744E7
2.3353690227200672E7
2.296559034070068E7
2.3110615847508293E7
2.3256121212010335E7
2.3005248183369875E7
2.315294875521966E7
-137217.53863474066
-11852.920596518106
113989.77038831584
239822.04750591528
-39761.518667070355
86914.99242818903
212300.21947233754
57538.62860770845
184898.1165798073
-517990.38079255336
-645549.0289915788
-772666.9727329124
-618492.0791225114
-744622.721395319
-872125.4719552135
-718960.6629866218
-844586.0622695276
-821072.6367704883
2.3063750165804684E7
2.292845578172335E7
2.279468774299504E7
2.301265796368426E7
2.2880587655709244E7
2.274907572620429E7
2.296156451140228E7
2.2832018808068644E7
2.2910316977796257E7
2.3214016849596906E7
2.3356199462893143E7
2.349996774542561E7
2.364385016990964E7
2.3260701834389612E7
2.3406432637618814E7
2.355265250184484E7
2.330732622683704E7
2.3455773955487996E7
-37059.725206660885
90279.11359922856
217984.60380553722
345579.72659596446
55754.63631722306
184418.94678069197
311808.058644914
148573.2454730715
277836.15093464224
-428529.3268901564
-559620.8720476232
-690266.8429890049
-525088.7959616629
-654699.9938835163
-785799.2425670164
-621640.3521703813
-750713.380768611
-719743.9702990999
2.3318045278113272E7
2.318110137253829E7
2.304564361391434E7
2.32596521224953E7
2.3125897167029385E7
2.299275273048971E7
2.3201251445043832E7
2.3070068617469627E7
2.3142752355566416E7
2.3484276707910437E7
2.3626654628862515E7
2.3770574555694625E7
2.391457472495189E7
2.353756343592964E7
2.3683494505817555E7
2.3829905841520008E7
2.359081386556264E7
2.373948450644235E7
82800.01540311084
211786.4952813382
341067.6559256256
470156.1068799493
170779.00266104165
301113.4005013262
430164.563364022
258877.327049158
389742.99155117886
-316817.65039471217
-451308.90550235775
-585450.2533297237
-409571.1036438445
-542552.3064889759
-677039.5523021311
-502187.53237211646
-634650.13029756
-596220.3023489336
2.3548783663594563E7
2.3412409490434725E7
2.327753779374215E7
2.34851735247835E7
2.3352047356751274E7
2.3219504440094113E7
2.3421598752924632E7
2.3291046287591316E7
2.335795866376828E7
2.3737122779560883E7
2.387883631346895E7
2.402209153468272E7
2.416537969002877E7
2.379633947827334E7
2.3941638148632243E7
2.4087401590428375E7
2.385554299895697E7
2.400359718857027E7
218881.40578928997
350351.78952721134
482010.4586687441
613391.0586052197
302907.43861365394
435719.85566641664
567292.422525855
387172.43349020416
520480.6979575133
-184314.2909176053
-321708.1475058639
-458859.8572224351
-272874.5028363321
-408749.87125220714
-546110.1170246437
-361165.7735589311
-496561.71061602037
-450751.1155135341
2.376351669530377E7
2.3627339628316335E7
2.3492625539048128E7
2.3694173326137707E7
2.3561246350941617E7
2.342888627499338E7
2.3624898765415292E7
2.34945598326845E7
2.355560185969613E7
2.3969395367620006E7
2.411053826929053E7
2.4253188893756196E7
2.4395826138353895E7
2.403476501673916E7
2.417949090995478E7
2.4324680325159445E7
2.4100136186561868E7
2.424762955929879E7
375777.3029312917
508917.9998286669
642153.8081708068
775027.1351620582
455118.7486332606
589616.7098464785
722879.8560141822
534821.7582178805
669774.5223760352
-31390.345324183767
-171185.23253588856
-310821.0055736426
-115305.28247050605
-253575.55729574402
-393311.22325568896
-198854.24386065334
-336679.30093079206
-283585.2880026589
2.396007163711718E7
2.3824277926485203E7
2.368993530955362E7
2.3885087047008984E7
2.3752572342366416E7
2.3620616428832613E7
2.3810215198364362E7
2.3680308405269694E7
2.3735366707175765E7
2.4182047583586335E7
2.432222946496448E7
2.44639065926678E7
2.4605518865306344E7
2.4253311862652145E7
2.4397103218052708E7
2.4541347913395382E7
2.4324610045102216E7
2.447118153186775E7
552502.5124416832
686753.3882688584
821010.1341390016
954820.178667192
626687.7074256752
762312.1338929287
896706.9838696071
701362.3100281225
837399.2219862456
140002.4244883923
-1126.1614018294522
-142167.07815329518
61699.693221920956
-77874.72334230204
-218923.88500497586
-16116.812299151195
-155293.83915750796
-94974.95391781228
2.413793977669393E7
2.4002798222015962E7
2.3869097224130318E7
2.4057522845897995E7
2.3925652235972803E7
2.3794369513524838E7
2.3977223438384157E7
2.3847971657470442E7
2.3896980003298923E7
2.4373480152305316E7
2.4512739625757817E7
2.4653472592024013E7
2.4794095424549412E7
2.4450790939409018E7
2.459367505416183E7
2.4737014602744523E7
2.4528171119870506E7
2.467385256089944E7
749396.0307240667
883973.9123180518
1018490.9152432678
1152482.8705630496
817759.6849022976
953739.6943344387
1088485.6763163107
886734.6899147702
1023080.1075334671
332852.03548794816
190405.16924572698
47948.56322164301
260043.42320065113
119161.17559716207
-23170.60057175359
187857.08076212317
47334.22116636893
114731.640276148
2.429416219450018E7
2.4160866402659126E7
2.4028974255597316E7
2.4209330148240115E7
2.4079346749823656E7
2.3949873734801278E7
2.412469654283732E7
2.3997310398891028E7
2.404016013503699E7
2.4545795329005387E7
2.4683352888411634E7