# vtk DataFile Version 2.0
Generated volume Mesh
ASCII
DATASET UNSTRUCTURED_GRID
POINTS 1240 float
-0.212153 -0.150304 0.000000
-0.206421 -0.141033 0.000000
-0.215099 -0.146056 0.000000
-0.209122 -0.154492 0.000000
-0.217961 -0.141751 0.000000
-0.206009 -0.158620 0.000000
-0.220736 -0.137389 0.000000
-0.202815 -0.162684 0.000000
-0.223424 -0.132973 0.000000
-0.226023 -0.128505 0.000000
-0.199540 -0.166684 0.000000
-0.228534 -0.123985 0.000000
-0.196187 -0.170619 0.000000
-0.230953 -0.119417 0.000000
-0.192756 -0.174486 0.000000
-0.233282 -0.114802 0.000000
-0.189249 -0.178283 0.000000
-0.235519 -0.110141 0.000000
-0.185666 -0.182011 0.000000
-0.237662 -0.105436 0.000000
-0.182011 -0.185666 0.000000
-0.239711 -0.100690 0.000000
-0.178283 -0.189249 0.000000
-0.241666 -0.095904 0.000000
-0.174486 -0.192756 0.000000
-0.243525 -0.091081 0.000000
-0.170619 -0.196187 0.000000
-0.245288 -0.086221 0.000000
-0.166684 -0.199540 0.000000
-0.246953 -0.081327 0.000000
-0.162684 -0.202815 0.000000
-0.248521 -0.076401 0.000000
-0.158620 -0.206009 0.000000
-0.249991 -0.071445 0.000000
-0.154492 -0.209122 0.000000
-0.251363 -0.066459 0.000000
-0.150304 -0.212153 0.000000
-0.252634 -0.061448 0.000000
-0.146056 -0.215099 0.000000
-0.253806 -0.056412 0.000000
-0.141751 -0.217961 0.000000
-0.137389 -0.220736 0.000000
-0.254878 -0.051354 0.000000
-0.132973 -0.223424 0.000000
-0.255849 -0.046275 0.000000
-0.128505 -0.226023 0.000000
-0.256718 -0.041179 0.000000
-0.123985 -0.228534 0.000000
-0.257486 -0.036067 0.000000
-0.119417 -0.230953 0.000000
-0.258152 -0.030940 0.000000
-0.114802 -0.233282 0.000000
-0.258717 -0.025802 0.000000
-0.110141 -0.235519 0.000000
-0.259178 -0.020654 0.000000
-0.105436 -0.237662 0.000000
-0.259538 -0.015498 0.000000
-0.100690 -0.239711 0.000000
-0.259794 -0.010336 0.000000
-0.095904 -0.241666 0.000000
-0.259949 -0.005169 0.000000
-0.091081 -0.243525 0.000000
-0.260000 0.000000 0.000000
-0.259949 0.005169 0.000000
-0.086221 -0.245288 0.000000
-0.259794 0.010336 0.000000
-0.081327 -0.246953 0.000000
-0.259538 0.015498 0.000000
-0.076401 -0.248521 0.000000
-0.259178 0.020654 0.000000
-0.071445 -0.249991 0.000000
-0.258717 0.025802 0.000000
-0.066459 -0.251363 0.000000
-0.258152 0.030940 0.000000
-0.061448 -0.252634 0.000000
-0.257486 0.036067 0.000000
-0.056412 -0.253806 0.000000
-0.256718 0.041179 0.000000
-0.051354 -0.254878 0.000000
-0.255849 0.046275 0.000000
-0.046275 -0.255849 0.000000
-0.254878 0.051354 0.000000
-0.041179 -0.256718 0.000000
-0.253806 0.056412 0.000000
-0.036067 -0.257486 0.000000
-0.252634 0.061448 0.000000
-0.030940 -0.258152 0.000000
-0.251363 0.066459 0.000000
-0.025802 -0.258717 0.000000
-0.249991 0.071445 0.000000
-0.020654 -0.259178 0.000000
-0.248521 0.076401 0.000000
-0.015498 -0.259538 0.000000
-0.010336 -0.259794 0.000000
-0.246953 0.081327 0.000000
-0.005169 -0.259949 0.000000
-0.245288 0.086221 0.000000
0.000000 -0.260000 0.000000
-0.243525 0.091081 0.000000
0.005169 -0.259949 0.000000
-0.241666 0.095904 0.000000
0.010336 -0.259794 0.000000
-0.239711 0.100690 0.000000
0.015498 -0.259538 0.000000
-0.237662 0.105436 0.000000
0.020654 -0.259178 0.000000
-0.235519 0.110141 0.000000
0.025802 -0.258717 0.000000
-0.233282 0.114802 0.000000
0.030940 -0.258152 0.000000
-0.230953 0.119417 0.000000
0.036067 -0.257486 0.000000
-0.228534 0.123985 0.000000
0.041179 -0.256718 0.000000
-0.226023 0.128505 0.000000
-0.223424 0.132973 0.000000
0.046275 -0.255849 0.000000
-0.220736 0.137389 0.000000
0.051354 -0.254878 0.000000
-0.217961 0.141751 0.000000
0.056412 -0.253806 0.000000
-0.215099 0.146056 0.000000
0.061448 -0.252634 0.000000
-0.212153 0.150304 0.000000
0.066459 -0.251363 0.000000
-0.209122 0.154492 0.000000
0.071445 -0.249991 0.000000
-0.206009 0.158620 0.000000
0.076401 -0.248521 0.000000
-0.202815 0.162684 0.000000
0.081327 -0.246953 0.000000
-0.199540 0.166684 0.000000
0.086221 -0.245288 0.000000
-0.196187 0.170619 0.000000
0.091081 -0.243525 0.000000
-0.192756 0.174486 0.000000
0.095904 -0.241666 0.000000
-0.189249 0.178283 0.000000
0.100690 -0.239711 0.000000
-0.185666 0.182011 0.000000
0.105436 -0.237662 0.000000
-0.182011 0.185666 0.000000
0.110141 -0.235519 0.000000
-0.178283 0.189249 0.000000
0.114802 -0.233282 0.000000
-0.174486 0.192756 0.000000
0.119417 -0.230953 0.000000
0.123985 -0.228534 0.000000
-0.170619 0.196187 0.000000
0.128505 -0.226023 0.000000
-0.166684 0.199540 0.000000
0.132973 -0.223424 0.000000
-0.162684 0.202815 0.000000
0.137389 -0.220736 0.000000
-0.158620 0.206009 0.000000
0.141751 -0.217961 0.000000
-0.154492 0.209122 0.000000
0.146056 -0.215099 0.000000
-0.150304 0.212153 0.000000
0.150304 -0.212153 0.000000
-0.146056 0.215099 0.000000
0.154492 -0.209122 0.000000
-0.141751 0.217961 0.000000
0.158620 -0.206009 0.000000
-0.137389 0.220736 0.000000
0.162684 -0.202815 0.000000
-0.132973 0.223424 0.000000
-0.128505 0.226023 0.000000
0.166684 -0.199540 0.000000
-0.123985 0.228534 0.000000
0.170619 -0.196187 0.000000
-0.119417 0.230953 0.000000
0.174486 -0.192756 0.000000
-0.114802 0.233282 0.000000
0.178283 -0.189249 0.000000
-0.110141 0.235519 0.000000
0.182011 -0.185666 0.000000
-0.105436 0.237662 0.000000
0.185666 -0.182011 0.000000
-0.100690 0.239711 0.000000
0.189249 -0.178283 0.000000
-0.095904 0.241666 0.000000
0.192756 -0.174486 0.000000
-0.091081 0.243525 0.000000
0.196187 -0.170619 0.000000
-0.086221 0.245288 0.000000
0.199540 -0.166684 0.000000
-0.081327 0.246953 0.000000
0.202815 -0.162684 0.000000
-0.076401 0.248521 0.000000
0.206009 -0.158620 0.000000
-0.071445 0.249991 0.000000
0.209122 -0.154492 0.000000
-0.066459 0.251363 0.000000
0.212153 -0.150304 0.000000
-0.061448 0.252634 0.000000
0.215099 -0.146056 0.000000
-0.056412 0.253806 0.000000
0.217961 -0.141751 0.000000
0.220736 -0.137389 0.000000
-0.051354 0.254878 0.000000
0.223424 -0.132973 0.000000
-0.046275 0.255849 0.000000
0.226023 -0.128505 0.000000
-0.041179 0.256718 0.000000
0.228534 -0.123985 0.000000
-0.036067 0.257486 0.000000
0.230953 -0.119417 0.000000
-0.030940 0.258152 0.000000
0.233282 -0.114802 0.000000
-0.025802 0.258717 0.000000
0.235519 -0.110141 0.000000
-0.020654 0.259178 0.000000
0.237662 -0.105436 0.000000
-0.015498 0.259538 0.000000
0.239711 -0.100690 0.000000
-0.010336 0.259794 0.000000
0.241666 -0.095904 0.000000
-0.005169 0.259949 0.000000
0.243525 -0.091081 0.000000
0.000000 0.260000 0.000000
0.245288 -0.086221 0.000000
0.005169 0.259949 0.000000
0.246953 -0.081327 0.000000
0.010336 0.259794 0.000000
0.248521 -0.076401 0.000000
0.015498 0.259538 0.000000
0.249991 -0.071445 0.000000
0.020654 0.259178 0.000000
0.251363 -0.066459 0.000000
0.025802 0.258717 0.000000
0.252634 -0.061448 0.000000
0.030940 0.258152 0.000000
0.253806 -0.056412 0.000000
0.036067 0.257486 0.000000
0.254878 -0.051354 0.000000
0.041179 0.256718 0.000000
0.255849 -0.046275 0.000000
0.046275 0.255849 0.000000
0.256718 -0.041179 0.000000
0.051354 0.254878 0.000000
0.257486 -0.036067 0.000000
0.056412 0.253806 0.000000
0.258152 -0.030940 0.000000
0.061448 0.252634 0.000000
0.258717 -0.025802 0.000000
0.066459 0.251363 0.000000
0.259178 -0.020654 0.000000
0.071445 0.249991 0.000000
0.259538 -0.015498 0.000000
0.076401 0.248521 0.000000
0.259794 -0.010336 0.000000
0.081327 0.246953 0.000000
0.259949 -0.005169 0.000000
0.086221 0.245288 0.000000
0.260000 0.000000 0.000000
0.091081 0.243525 0.000000
0.259949 0.005169 0.000000
0.095904 0.241666 0.000000
0.259794 0.010336 0.000000
0.100690 0.239711 0.000000
0.259538 0.015498 0.000000
0.105436 0.237662 0.000000
0.259178 0.020654 0.000000
0.110141 0.235519 0.000000
0.258717 0.025802 0.000000
0.114802 0.233282 0.000000
0.258152 0.030940 0.000000
0.119417 0.230953 0.000000
0.257486 0.036067 0.000000
0.123985 0.228534 0.000000
0.256718 0.041179 0.000000
0.128505 0.226023 0.000000
0.255849 0.046275 0.000000
0.132973 0.223424 0.000000
0.254878 0.051354 0.000000
0.137389 0.220736 0.000000
0.253806 0.056412 0.000000
0.141751 0.217961 0.000000
0.252634 0.061448 0.000000
0.146056 0.215099 0.000000
0.251363 0.066459 0.000000
0.150304 0.212153 0.000000
0.249991 0.071445 0.000000
0.154492 0.209122 0.000000
0.248521 0.076401 0.000000
0.158620 0.206009 0.000000
0.246953 0.081327 0.000000
0.162684 0.202815 0.000000
0.245288 0.086221 0.000000
0.166684 0.199540 0.000000
0.243525 0.091081 0.000000
0.170619 0.196187 0.000000
0.241666 0.095904 0.000000
0.174486 0.192756 0.000000
0.239711 0.100690 0.000000
0.178283 0.189249 0.000000
0.237662 0.105436 0.000000
0.182011 0.185666 0.000000
0.235519 0.110141 0.000000
0.185666 0.182011 0.000000
0.233282 0.114802 0.000000
0.189249 0.178283 0.000000
0.230953 0.119417 0.000000
0.192756 0.174486 0.000000
0.228534 0.123985 0.000000
0.196187 0.170619 0.000000
0.226023 0.128505 0.000000
0.199540 0.166684 0.000000
0.223424 0.132973 0.000000
0.202815 0.162684 0.000000
0.220736 0.137389 0.000000
0.206009 0.158620 0.000000
0.217961 0.141751 0.000000
0.209122 0.154492 0.000000
0.215099 0.146056 0.000000
0.212153 0.150304 0.000000
-0.203462 -0.145269 0.000000
-0.209292 -0.136737 0.000000
-0.200416 -0.149443 0.000000
-0.212073 -0.132382 0.000000
-0.197285 -0.153553 0.000000
-0.214764 -0.127971 0.000000
-0.194070 -0.157598 0.000000
-0.217362 -0.123505 0.000000
-0.190771 -0.161575 0.000000
-0.219868 -0.118987 0.000000
-0.187391 -0.165483 0.000000
-0.222281 -0.114417 0.000000
-0.183931 -0.169320 0.000000
-0.224598 -0.109799 0.000000
-0.180392 -0.173086 0.000000
-0.226819 -0.105134 0.000000
-0.176777 -0.176777 0.000000
-0.228943 -0.100424 0.000000
-0.173086 -0.180392 0.000000
-0.230970 -0.095671 0.000000
-0.169320 -0.183931 0.000000
-0.232898 -0.090877 0.000000
-0.165483 -0.187391 0.000000
-0.234726 -0.086044 0.000000
-0.161575 -0.190771 0.000000
-0.236454 -0.081175 0.000000
-0.157598 -0.194070 0.000000
-0.238081 -0.076271 0.000000
-0.153553 -0.197285 0.000000
-0.239607 -0.071334 0.000000
-0.149443 -0.200416 0.000000
-0.241030 -0.066366 0.000000
-0.145269 -0.203462 0.000000
-0.242350 -0.061370 0.000000
-0.141033 -0.206421 0.000000
[...]
POINT_DATA 1240
SCALARS u1 float
LOOKUP_TABLE default
-9e-05
-8e-05
-9e-05
-0.0001
-8e-05
-0.0001
-8e-05
-0.0001
-7e-05
-7e-05
-0.0001
-7e-05
-0.0001
-8e-05
-0.0001
-8e-05
-0.0001
-8e-05
-0.0001
-9e-05
-0.0001
-9e-05
-0.0001
-0.0001
-0.0001
-0.0001
-0.0001
-0.0001
-9e-05
-0.0001
-8e-05
-0.0001
-7e-05
-0.0002
-6e-05
-0.0002
-6e-05
-0.0002
-5e-05
-0.0002
-4e-05
-4e-05
-0.0002
-4e-05
-0.0002
-4e-05
-0.0003
-3e-05
-0.0003
-3e-05
-0.0003
-3e-05
-0.0003
-3e-05
-0.0003
-3e-05
-0.0003
-3e-05
-0.0003
-3e-05
-0.0003
-4e-05
-0.0003
-0.0003
-4e-05
-0.0003
-4e-05
-0.0003
-4e-05
-0.0003
-5e-05
-0.0003
-5e-05
-0.0003
-5e-05
-0.0003
-5e-05
-0.0003
-6e-05
-0.0002
-6e-05
-0.0002
-5e-05
-0.0002
-5e-05
-0.0002
-5e-05
-0.0002
-5e-05
-0.0002
-4e-05
-0.0001
-4e-05
-4e-05
-0.0001
-3e-05
-0.0001
-3e-05
-0.0001
-2e-05
-0.0001
-2e-05
-0.0001
-1e-05
-0.0001
-8e-06
-0.0001
-4e-06
-9e-05
-1e-06
-9e-05
2e-06
-9e-05
3e-06
-9e-05
-9e-05
4e-06
-9e-05
3e-06
-0.0001
2e-06
-0.0001
-5e-07
-0.0001
-3e-06
-0.0001
-7e-06
-0.0001
-1e-05
-0.0001
-1e-05
-0.0001
-2e-05
-0.0001
-2e-05
-0.0001
-2e-05
-0.0001
-2e-05
-0.0001
-2e-05
-0.0001
-2e-05
-0.0001
-2e-05
-0.0001
-2e-05
-2e-05
-0.0001
-2e-05
-0.0001
-2e-05
-0.0001
-2e-05
-0.0001
-1e-05
-9e-05
-8e-06
-8e-05
-2e-06
-7e-05
6e-06
-7e-05
1e-05
-6e-05
2e-05
-6e-05
-6e-05
3e-05
-6e-05
4e-05
-6e-05
5e-05
-6e-05
6e-05
-6e-05
6e-05
-6e-05
7e-05
-6e-05
7e-05
-6e-05
7e-05
-6e-05
6e-05
-7e-05
6e-05
-7e-05
5e-05
-7e-05
4e-05
-7e-05
4e-05
-8e-05
3e-05
-8e-05
2e-05
-8e-05
2e-05
1e-05
-8e-05
8e-06
-8e-05
7e-06
-8e-05
7e-06
-8e-05
9e-06
-8e-05
1e-05
-8e-05
2e-05
-7e-05
2e-05
-7e-05
2e-05
-6e-05
3e-05
-6e-05
4e-05
-5e-05
4e-05
-5e-05
5e-05
-5e-05
7e-05
-4e-05
8e-05
-4e-05
0.0001
-3e-05
0.0001
-3e-05
0.0001
-3e-05
0.0001
-3e-05
0.0002
-3e-05
0.0002
-3e-05
0.0002
-3e-05
0.0002
-3e-05
0.0002
-3e-05
0.0002
-3e-05
0.0002
-4e-05
0.0003
-4e-05
0.0003
-4e-05
0.0003
-5e-05
0.0003
-5e-05
0.0003
-5e-05
0.0002
-5e-05
0.0002
-5e-05
0.0002
-5e-05
0.0002
-5e-05
0.0002
-5e-05
0.0002
-5e-05
0.0002
-4e-05
0.0001
-4e-05
0.0001
-4e-05
0.0001
-3e-05
9e-05
-3e-05
7e-05
-2e-05
6e-05
-9e-06
5e-05
7e-07
4e-05
1e-05
3e-05
2e-05
2e-05
3e-05
1e-05
4e-05
7e-06
4e-05
3e-06
5e-05
-1e-06
5e-05
-5e-06
5e-05
-7e-06
4e-05
-8e-06
4e-05
-7e-06
3e-05
-5e-06
3e-05
-3e-07
2e-05
5e-06
1e-05
-9e-05
-8e-05
-9e-05
-7e-05
-0.0001
-7e-05
-0.0001
-7e-05
-0.0001
-8e-05
-0.0001
-8e-05
-0.0001
-8e-05
-0.0001
-9e-05
-0.0001
-0.0001
-0.0001
-0.0001
-0.0001
-0.0001
-0.0001
-0.0001
-0.0001
-0.0001
-0.0001
-0.0001
-9e-05
-0.0002
-8e-05
-0.0002
-7e-05
-0.0002
-6e-05
-0.0002
-6e-05
-0.0002
-5e-05
-0.0002
-4e-05
-0.0003
-4e-05
-0.0003
-3e-05
-0.0003
-3e-05
-0.0003
-3e-05
-0.0003
-3e-05
-0.0003
-3e-05
-0.0003
-2e-05
-0.0003
-2e-05
-0.0003
-2e-05
-0.0003
-2e-05
-0.0003
-2e-05
-0.0003
-2e-05
-0.0003
-2e-05
-0.0003
-2e-05
-0.0003
-2e-05
-0.0003
-2e-05
-0.0003
-2e-05
-0.0003
-2e-05
-0.0002
-3e-05
-0.0002
-3e-05
-0.0002
-3e-05
-0.0002
-3e-05
-0.0002
-3e-05
-0.0001
-3e-05
-0.0001
-3e-05
-0.0001
-3e-05
-0.0001
-3e-05
-0.0001
-3e-05
-0.0001
-3e-05
-0.0001
-3e-05
-0.0001
-3e-05
-9e-05
-3e-05
-9e-05
-3e-05
-9e-05
-3e-05
-9e-05
-3e-05
-9e-05
-3e-05
-9e-05
-3e-05
-0.0001
-3e-05
-0.0001
-3e-05
-0.0001
-3e-05
-0.0001
-3e-05
-0.0001
-3e-05
-0.0001
-3e-05
-0.0001
-3e-05
-0.0001
-3e-05
-0.0001
-3e-05
-0.0001
-3e-05
-0.0001
-3e-05
-0.0001
-2e-05
-0.0001
-2e-05
-0.0001
-2e-05
-0.0001
-1e-05
-0.0001
-7e-06
-0.0001
-4e-07
-0.0001
7e-06
-9e-05
2e-05
-8e-05
3e-05
-7e-05
3e-05
-7e-05
4e-05
-6e-05
5e-05
-6e-05
6e-05
-6e-05
6e-05
-6e-05
6e-05
-5e-05
7e-05
-5e-05
6e-05
-5e-05
6e-05
-5e-05
6e-05
-5e-05
5e-05
-5e-05
4e-05
-5e-05
4e-05
-5e-05
3e-05
-5e-05
2e-05
-5e-05
1e-05
-5e-05
1e-05
-5e-05
8e-06
-5e-05
7e-06
-5e-05
7e-06
-5e-05
9e-06
-5e-05
1e-05
-5e-05
2e-05
-6e-05
2e-05
-6e-05
3e-05
-5e-05
3e-05
-5e-05
4e-05
-5e-05
5e-05
-5e-05
6e-05
-5e-05
7e-05
-5e-05
8e-05
-5e-05
0.0001
-5e-05
0.0001
-5e-05
0.0001
-6e-05
0.0002
-6e-05
0.0002
-6e-05
0.0002
-6e-05
0.0002
-6e-05
0.0002
-6e-05
0.0002
-6e-05
0.0002
-6e-05
0.0002
-6e-05
0.0003
-6e-05
0.0003
-6e-05
0.0003
-6e-05
0.0003
-6e-05
0.0003
-5e-05
0.0002
-5e-05
0.0002
-5e-05
0.0002
-5e-05
0.0002
-5e-05
0.0002
-4e-05
0.0002
-4e-05
0.0002
-3e-05
0.0001
-2e-05
0.0001
-2e-05
0.0001
-7e-06
9e-05
3e-06
7e-05
1e-05
6e-05
2e-05
5e-05
3e-05
4e-05
4e-05
3e-05
4e-05
2e-05
4e-05
1e-05
5e-05
9e-06
4e-05
4e-06
4e-05
-3e-07
4e-05
-4e-06
3e-05
-7e-06
3e-05
-8e-06
2e-05
-7e-06
1e-05
-5e-06
-9e-07
4e-06
-9e-05
-9e-05
-9e-05
-8e-05
-8e-05
-9e-05
-0.0001
-8e-05
-8e-05
-0.0001
-0.0001
-7e-05
-7e-05
-0.0001
-0.0001
-7e-05
-7e-05
-7e-05
-0.0001
-0.0001
-7e-05
-8e-05
-0.0001
-0.0001
-8e-05
-8e-05
-0.0001
-0.0001
-8e-05
-8e-05
-0.0001
-0.0001
-9e-05
-9e-05
-0.0001
-0.0001
-9e-05
-9e-05
-0.0001
-0.0001
-0.0001
-0.0001
-0.0001
-0.0001
-0.0001
-0.0001
-0.0001
-0.0001
-0.0001
-0.0001
-0.0001
-0.0001
-0.0001
-0.0001
-0.0001
-9e-05
-0.0001
-0.0001
-9e-05
-8e-05
-0.0001
-0.0001
-8e-05
-7e-05
-0.0002
-0.0002
-7e-05
-6e-05
-0.0002
-0.0002
-6e-05
-6e-05
-0.0002
-0.0002
-6e-05
-5e-05
-0.0002
-0.0002
-5e-05
-4e-05
-4e-05
-0.0002
-0.0002
-4e-05
-4e-05
-0.0003
-0.0003
-4e-05
-4e-05
-0.0003
-0.0003
-4e-05
-3e-05
-0.0003
-0.0003
-3e-05
-3e-05
-0.0003
-0.0003
-3e-05
-3e-05
-0.0003
-0.0003
-3e-05
-3e-05
-0.0003
-0.0003
-3e-05
-3e-05
-0.0003
-0.0003
-3e-05
-3e-05
-0.0003
-0.0003
-3e-05
-3e-05
-0.0003
-0.0003
-3e-05
-3e-05
-0.0003
-0.0003
-0.0003
-3e-05
-3e-05
-0.0003
-0.0003
-3e-05
-3e-05
-0.0003
-0.0003
-3e-05
-4e-05
-0.0003
-0.0003
-3e-05
-4e-05
-0.0003
-0.0003
-3e-05
-4e-05
-0.0003
-0.0003
-3e-05
-4e-05
-0.0003
-0.0003
-3e-05
-4e-05
-0.0003
-0.0003
-3e-05
-4e-05
-0.0003
-0.0002
-3e-05
-4e-05
-0.0002
-0.0002
-3e-05
-4e-05
-0.0002
-0.0002
-3e-05
-4e-05
-0.0002
-0.0002
-3e-05
-4e-05
-0.0002
-0.0002
-3e-05
-4e-05
-0.0002
-0.0002
-3e-05
-4e-05
-0.0002
-0.0001
-3e-05
-3e-05
-3e-05
-0.0001
-0.0001
-3e-05
-3e-05
-0.0001
-0.0001
-3e-05
-2e-05
-0.0001
-0.0001
-2e-05
-2e-05
-0.0001
-0.0001
-2e-05
-2e-05
-0.0001
-0.0001
-2e-05
-2e-05
-0.0001
-0.0001
-2e-05
-1e-05
-0.0001
-0.0001
-2e-05
-1e-05
-9e-05
-9e-05
-2e-05
-9e-06
-9e-05
-9e-05
-2e-05
-8e-06
-9e-05
-9e-05
-2e-05
-8e-06
-9e-05
-9e-05
-9e-05
-2e-05
-8e-06
-9e-05
-9e-05
-2e-05
-9e-06
-9e-05
-0.0001
-2e-05
-1e-05
-0.0001
-0.0001
-2e-05
-1e-05
-0.0001
-0.0001
-2e-05
-1e-05
-0.0001
-0.0001
-3e-05
-2e-05
-0.0001
-0.0001
-3e-05
-2e-05
-0.0001
-0.0001
-3e-05
-2e-05
-0.0001
-0.0001
-3e-05
-2e-05
-0.0001
-0.0001
-3e-05
-2e-05
-0.0001
-0.0001
-3e-05
-2e-05
-0.0001
-0.0001
-3e-05
-2e-05
-0.0001
-0.0001
-3e-05
-2e-05
-0.0001
-0.0001
-2e-05
-2e-05
-0.0001
-0.0001
-2e-05
-2e-05
-0.0001
-0.0001
-2e-05
-2e-05
-2e-05
-0.0001
-0.0001
-2e-05
-2e-05
-0.0001
-0.0001
-2e-05
-2e-05
-0.0001
-0.0001
-1e-05
-1e-05
-0.0001
-0.0001
-7e-06
-7e-06
-0.0001
-9e-05
-4e-07
-7e-07
-9e-05
-8e-05
7e-06
7e-06
-8e-05
-7e-05
2e-05
2e-05
-7e-05
-7e-05
2e-05
2e-05
-7e-05
-6e-05
3e-05
3e-05
-6e-05
-6e-05
-6e-05
4e-05
4e-05
-6e-05
-6e-05
5e-05
5e-05
-6e-05
-6e-05
6e-05
6e-05
-6e-05
-6e-05
6e-05
6e-05
-6e-05
-6e-05
6e-05
6e-05
-5e-05
-6e-05
7e-05
7e-05
-5e-05
-6e-05
6e-05
7e-05
-5e-05
-6e-05
6e-05
6e-05
-5e-05
-6e-05
6e-05
6e-05
-5e-05
-6e-05
5e-05
5e-05
-5e-05
-6e-05
4e-05
4e-05
-5e-05
-6e-05
4e-05
4e-05
-6e-05
-7e-05
3e-05
3e-05
-6e-05
-7e-05
2e-05
2e-05
-6e-05
-7e-05
2e-05
2e-05
-6e-05
-7e-05
1e-05
1e-05
8e-06
-6e-05
-7e-05
8e-06
7e-06
-6e-05
-7e-05
7e-06
7e-06
-6e-05
-7e-05
8e-06
8e-06
-6e-05
-7e-05
1e-05
1e-05
-6e-05
-7e-05
1e-05
1e-05
-6e-05
-7e-05
2e-05
2e-05
-6e-05
-7e-05
2e-05
2e-05
-6e-05
-6e-05
3e-05
3e-05
-6e-05
-6e-05
3e-05
3e-05
-6e-05
-6e-05
4e-05
4e-05
-5e-05
-5e-05
-5e-05
5e-05
5e-05
-5e-05
-5e-05
6e-05
6e-05
-5e-05
-4e-05
7e-05
8e-05
-5e-05
-4e-05
9e-05
9e-05
-5e-05
-4e-05
0.0001
0.0001
-5e-05
-4e-05
0.0001
0.0001
-5e-05
-4e-05
0.0001
0.0001
-5e-05
-4e-05
0.0002
0.0002
-5e-05
-4e-05
0.0002
0.0002
-5e-05
-4e-05
0.0002
0.0002
-5e-05
-4e-05
0.0002
0.0002
-5e-05
-4e-05
0.0002
0.0002
-5e-05
-4e-05
0.0002
0.0002
-5e-05
-4e-05
0.0002
0.0002
-5e-05
-5e-05
0.0003
0.0003
0.0003
-5e-05
-5e-05
0.0003
0.0003
-5e-05
-5e-05
0.0003
0.0003
-5e-05
-5e-05
0.0003
0.0003
-5e-05
-5e-05
0.0003
0.0003
-5e-05
-5e-05
0.0002
0.0002
-5e-05
-5e-05
0.0002
0.0002
-5e-05
-5e-05
0.0002
0.0002
-5e-05
-5e-05
0.0002
0.0002
-5e-05
-5e-05
0.0002
0.0002
-5e-05
-5e-05
0.0002
0.0002
-4e-05
-4e-05
0.0002
0.0002
-4e-05
-4e-05
0.0002
0.0001
-3e-05
-4e-05
0.0001
0.0001
-2e-05
-3e-05
0.0001
0.0001
-2e-05
-2e-05
0.0001
8e-05
-7e-06
-2e-05
8e-05
7e-05
2e-06
-8e-06
6e-05
5e-05
1e-05
1e-06
5e-05
4e-05
2e-05
1e-05
4e-05
3e-05
3e-05
2e-05
3e-05
2e-05
4e-05
3e-05
2e-05
2e-05
4e-05
4e-05
2e-05
1e-05
4e-05
4e-05
1e-05
6e-06
5e-05
4e-05
5e-06
2e-06
5e-05
5e-05
6e-07
-2e-06
4e-05
5e-05
-4e-06
-6e-06
4e-05
4e-05
-7e-06
-7e-06
3e-05
4e-05
-8e-06
-8e-06
3e-05
3e-05
-7e-06
-7e-06
2e-05
3e-05
-5e-06
-5e-06
1e-05
-7e-07
5e-06
2e-05
-6e-07
1e-05
5e-06
SCALARS u2 float
LOOKUP_TABLE default
-2e-05
-3e-05
-2e-05
-3e-05
-1e-05
-4e-05
-7e-06
-5e-05
-5e-06
-4e-06
-6e-05
-3e-06
-7e-05
-3e-06
-7e-05
-2e-06
-8e-05
-2e-06
-9e-05
-2e-06
-9e-05
-3e-06
-9e-05
-4e-06
-9e-05
-6e-06
-9e-05
-8e-06
-8e-05
-1e-05
-8e-05
-1e-05
-7e-05
-2e-05
-6e-05
-2e-05
-5e-05
-2e-05
-5e-05
-3e-05
-4e-05
-3e-05
-3e-05
-3e-05
-3e-05
-3e-05
-3e-05
-3e-05
-2e-05
-3e-05
-2e-05
-4e-05
-2e-05
-4e-05
-2e-05
-4e-05
-1e-05
-5e-05
-7e-06
-5e-05
-3e-06
-6e-05
2e-06
7e-06
-7e-05
1e-05
-8e-05
2e-05
-9e-05
2e-05
-0.0001
2e-05
-0.0001
3e-05
-0.0001
3e-05
-0.0002
3e-05
-0.0002
3e-05
-0.0002
3e-05
-0.0002
3e-05
-0.0002
3e-05
-0.0002
3e-05
-0.0003
2e-05
-0.0003
2e-05
-0.0003
-0.0003
2e-05
-0.0003
1e-05
-0.0003
1e-05
-0.0003
1e-05
-0.0003
1e-05
-0.0003
1e-05
-0.0003
1e-05
-0.0002
1e-05
-0.0002
1e-05
-0.0002
1e-05
-0.0002
1e-05
1e-05
-0.0002
2e-05
-0.0002
2e-05
-0.0001
3e-05
-0.0001
3e-05
-0.0001
4e-05
-0.0001
5e-05
-8e-05
6e-05
-7e-05
7e-05
-6e-05
8e-05
-5e-05
9e-05
-4e-05
9e-05
-4e-05
0.0001
-3e-05
0.0001
-3e-05
0.0001
-2e-05
0.0001
-2e-05
-2e-05
0.0001
-2e-05
0.0001
-2e-05
9e-05
-2e-05
8e-05
-2e-05
8e-05
-3e-05
7e-05
-4e-05
6e-05
-4e-05
6e-05
-5e-05
5e-05
-6e-05
5e-05
5e-05
-6e-05
5e-05
-7e-05
5e-05
-7e-05
6e-05
-7e-05
6e-05
-7e-05
6e-05
-6e-05
7e-05
-6e-05
8e-05
-5e-05
8e-05
-4e-05
9e-05
-3e-05
0.0001
-2e-05
0.0001
-1e-05
0.0001
-6e-06
0.0001
2e-06
0.0002
8e-06
0.0002
1e-05
2e-05
0.0002
2e-05
0.0002
2e-05
0.0002
2e-05
0.0003
2e-05
0.0003
2e-05
0.0003
2e-05
0.0003
2e-05
0.0003
2e-05
0.0003
2e-05
0.0003
2e-05
0.0003
2e-05
0.0003
2e-05
0.0003
1e-05
0.0003
1e-05
0.0003
8e-06
0.0003
5e-06
0.0003
3e-06
0.0003
2e-06
0.0002
2e-06
0.0002
2e-06
0.0002
4e-06
0.0002
6e-06
0.0002
1e-05
0.0002
1e-05
0.0001
2e-05
0.0001
2e-05
0.0001
3e-05
0.0001
3e-05
9e-05
4e-05
9e-05
4e-05
8e-05
5e-05
8e-05
5e-05
7e-05
5e-05
7e-05
6e-05
7e-05
6e-05
6e-05
6e-05
6e-05
6e-05
7e-05
6e-05
7e-05
6e-05
7e-05
6e-05
8e-05
5e-05
9e-05
5e-05
9e-05
5e-05
0.0001
4e-05
0.0001
4e-05
0.0001
4e-05
0.0001
4e-05
0.0001
4e-05
0.0001
4e-05
0.0001
4e-05
0.0001
4e-05
0.0001
4e-05
0.0001
4e-05
0.0001
4e-05
9e-05
4e-05
8e-05
4e-05
7e-05
4e-05
6e-05
5e-05
6e-05
-4e-05
-2e-05
-5e-05
-2e-05
-6e-05
-1e-05
-7e-05
-6e-06
-7e-05
-2e-06
-8e-05
4e-07
-8e-05
2e-06
-9e-05
4e-06
-9e-05
5e-06
-9e-05
7e-06
-8e-05
8e-06
-8e-05
9e-06
-7e-05
1e-05
-7e-05
1e-05
-6e-05
1e-05
-5e-05
1e-05
-4e-05
1e-05
-4e-05
1e-05
-3e-05
8e-06
-3e-05
7e-06
-3e-05
6e-06
-3e-05
4e-06
-3e-05
3e-06
-4e-05
2e-06
-4e-05
2e-06
-4e-05
2e-06
-5e-05
3e-06
-6e-05
3e-06
-6e-05
3e-06
-7e-05
3e-06
-8e-05
3e-06
-9e-05
4e-06
-0.0001
4e-06
-0.0001
3e-06
-0.0001
3e-06
-0.0002
2e-06
-0.0002
5e-07
-0.0002
-7e-07
-0.0002
-2e-06
-0.0002
-3e-06
-0.0002
-4e-06
-0.0003
-4e-06
-0.0003
-4e-06
-0.0003
-4e-06
-0.0003
-3e-06
-0.0003
-2e-06
-0.0003
-3e-07
-0.0003
1e-06
-0.0003
3e-06
-0.0003
5e-06
-0.0003
6e-06
-0.0003
9e-06
-0.0002
1e-05
-0.0002
2e-05
-0.0002
2e-05
-0.0002
3e-05
-0.0002
3e-05
-0.0002
4e-05
-0.0001
5e-05
-0.0001
6e-05
-0.0001
7e-05
-8e-05
8e-05
-7e-05
9e-05
-6e-05
9e-05
-5e-05
0.0001
-4e-05
0.0001
-4e-05
0.0001
-3e-05
0.0001
-3e-05
0.0001
-2e-05
0.0001
-2e-05
9e-05
-2e-05
8e-05
-2e-05
8e-05
-2e-05
7e-05
-2e-05
6e-05
-2e-05
6e-05
-3e-05
5e-05
-3e-05
5e-05
-4e-05
5e-05
-5e-05
5e-05
-6e-05
5e-05
-6e-05
6e-05
-7e-05
6e-05
-7e-05
7e-05
-7e-05
7e-05
-7e-05
8e-05
-6e-05
9e-05
-6e-05
9e-05
-5e-05
0.0001
-4e-05
0.0001
-4e-05
0.0001
-3e-05
0.0001
-2e-05
0.0002
-8e-06
0.0002
4e-07
0.0002
8e-06
0.0002
1e-05
0.0002
2e-05
0.0003
2e-05
0.0003
3e-05
0.0003
3e-05
0.0003
3e-05
0.0003
3e-05
0.0003
3e-05
0.0003
3e-05
0.0003
4e-05
0.0003
4e-05
0.0003
4e-05
0.0003
4e-05
0.0003
4e-05
0.0003
4e-05
0.0003
4e-05
0.0003
4e-05
0.0002
3e-05
0.0002
3e-05
0.0002
3e-05
0.0002
3e-05
0.0002
3e-05
0.0002
3e-05
0.0001
3e-05
0.0001
3e-05
0.0001
3e-05
0.0001
3e-05
0.0001
3e-05
9e-05
3e-05
8e-05
3e-05
8e-05
3e-05
7e-05
3e-05
7e-05
3e-05
7e-05
3e-05
6e-05
3e-05
6e-05
3e-05
6e-05
3e-05
7e-05
2e-05
7e-05
2e-05
8e-05
2e-05
8e-05
2e-05
9e-05
2e-05
0.0001
2e-05
0.0001
2e-05
0.0001
3e-05
0.0001
3e-05
0.0001
3e-05
0.0001
3e-05
0.0001
3e-05
0.0001
3e-05
0.0001
4e-05
0.0001
4e-05
0.0001
4e-05
9e-05
5e-05
8e-05
6e-05
6e-05
7e-05
-2e-05
-3e-05
-3e-05
-2e-05
-2e-05
-4e-05
-4e-05
-2e-05
-1e-05
-5e-05
-5e-05
-1e-05
-7e-06
-6e-05
-6e-05
-7e-06
-5e-06
-3e-06
-7e-05
-7e-05
-3e-06
-2e-06
-7e-05
-7e-05
-1e-06
-1e-06
-8e-05
-8e-05
2e-07
-6e-07
-8e-05
-8e-05
2e-06
-3e-09
-9e-05
-9e-05
3e-06
2e-07
-9e-05
-9e-05
3e-06
1e-07
-9e-05
-9e-05
4e-06
-3e-07
-9e-05
-9e-05
4e-06
-1e-06
-8e-05
-8e-05
4e-06
-2e-06
-7e-05
-8e-05
4e-06
-4e-06
-7e-05
-7e-05
3e-06
-6e-06
-6e-05
-6e-05
2e-06
-8e-06
-5e-05
-5e-05
6e-07
-1e-05
-4e-05
-4e-05
-8e-07
-1e-05
-4e-05
-4e-05
-2e-06
-1e-05
-3e-05
-3e-05
-3e-05
-4e-06
-2e-05
-3e-05
-3e-05
-5e-06
-2e-05
-3e-05
-3e-05
-5e-06
-2e-05
-3e-05
-3e-05
-6e-06
-1e-05
-3e-05
-3e-05
-5e-06
-1e-05
-4e-05
-4e-05
-5e-06
-1e-05
-4e-05
-4e-05
-3e-06
-8e-06
-5e-05
-5e-05
-2e-06
-5e-06
-5e-05
-5e-05
-3e-07
-2e-06
-6e-05
-6e-05
2e-06
2e-06
-6e-05
-7e-05
5e-06
4e-06
8e-06
-7e-05
-8e-05
6e-06
1e-05
-8e-05
-9e-05
7e-06
1e-05
-0.0001
-0.0001
9e-06
2e-05
-0.0001
-0.0001
1e-05
2e-05
-0.0001
-0.0001
1e-05
2e-05
-0.0001
-0.0001
1e-05
2e-05
-0.0002
-0.0002
1e-05
2e-05
-0.0002
-0.0002
1e-05
2e-05
-0.0002
-0.0002
1e-05
2e-05
-0.0002
-0.0002
8e-06
2e-05
-0.0002
-0.0002
7e-06
2e-05
-0.0002
-0.0002
6e-06
1e-05
-0.0003
-0.0003
5e-06
1e-05
-0.0003
-0.0003
4e-06
1e-05
-0.0003
-0.0003
-0.0003
3e-06
9e-06
-0.0003
-0.0003
3e-06
8e-06
-0.0003
-0.0003
3e-06
7e-06
-0.0003
-0.0003
4e-06
7e-06
-0.0003
-0.0003
4e-06
7e-06
-0.0003
-0.0003
5e-06
8e-06
-0.0003
-0.0003
7e-06
8e-06
-0.0003
-0.0002
8e-06
9e-06
-0.0002
-0.0002
1e-05
1e-05
-0.0002
-0.0002
1e-05
1e-05
-0.0002
-0.0002
2e-05
1e-05
2e-05
-0.0002
-0.0002
2e-05
2e-05
-0.0002
-0.0002
3e-05
3e-05
-0.0002
-0.0001
3e-05
3e-05
-0.0001
-0.0001
4e-05
4e-05
-0.0001
-0.0001
5e-05
5e-05
-0.0001
-9e-05
6e-05
6e-05
-9e-05
-8e-05
7e-05
7e-05
-7e-05
-7e-05
8e-05
8e-05
-6e-05
-6e-05
9e-05
9e-05
-5e-05
-5e-05
9e-05
9e-05
-5e-05
-4e-05
0.0001
0.0001
-4e-05
-3e-05
0.0001
0.0001
-3e-05
-3e-05
0.0001
0.0001
-3e-05
-3e-05
0.0001
0.0001
-2e-05
-2e-05
0.0001
0.0001
-2e-05
-2e-05
-2e-05
0.0001
0.0001
-2e-05
-2e-05
9e-05
9e-05
-2e-05
-2e-05
8e-05
8e-05
-2e-05
-2e-05
8e-05
8e-05
-2e-05
-2e-05
7e-05
7e-05
-2e-05
-3e-05
6e-05
6e-05
-3e-05
-4e-05
6e-05
6e-05
-3e-05
-4e-05
5e-05
5e-05
-4e-05
-5e-05
5e-05
5e-05
-5e-05
-6e-05
5e-05
5e-05
5e-05
-6e-05
-6e-05
5e-05
5e-05
-6e-05
-7e-05
5e-05
5e-05
-7e-05
-7e-05
6e-05
6e-05
-7e-05
-7e-05
6e-05
6e-05
-7e-05
-7e-05
7e-05
7e-05
-7e-05
-6e-05
7e-05
7e-05
-6e-05
-6e-05
8e-05
8e-05
-6e-05
-5e-05
9e-05
9e-05
-5e-05
-4e-05
0.0001
0.0001
-4e-05
-3e-05
0.0001
0.0001
-4e-05
-2e-05
0.0001
0.0001
-3e-05
-2e-05
0.0001
0.0001
-2e-05
-7e-06
0.0002
0.0002
-7e-06
9e-07
0.0002
0.0002
5e-07
8e-06
0.0002
0.0002
7e-06
1e-05
2e-05
0.0002
0.0002
1e-05
2e-05
0.0002
0.0002
2e-05
2e-05
0.0002
0.0003
2e-05
2e-05
0.0003
0.0003
2e-05
2e-05
0.0003
0.0003
3e-05
3e-05
0.0003
0.0003
3e-05
3e-05
0.0003
0.0003
3e-05
3e-05
0.0003
0.0003
3e-05
3e-05
0.0003
0.0003
3e-05
3e-05
0.0003
0.0003
3e-05
3e-05
0.0003
0.0003
0.0003
3e-05
2e-05
0.0003
0.0003
3e-05
2e-05
0.0003
0.0003
3e-05
2e-05
0.0003
0.0003
3e-05
2e-05
0.0003
0.0003
3e-05
2e-05
0.0003
0.0003
3e-05
2e-05
0.0003
0.0003
3e-05
1e-05
0.0002
0.0002
2e-05
1e-05
0.0002
0.0002
2e-05
1e-05
0.0002
0.0002
2e-05
1e-05
0.0002
0.0002
2e-05
1e-05
0.0002
0.0002
2e-05
2e-05
0.0002
0.0001
2e-05
2e-05
0.0001
0.0001
2e-05
2e-05
0.0001
0.0001
3e-05
2e-05
3e-05
0.0001
0.0001
3e-05
3e-05
0.0001
0.0001
3e-05
3e-05
0.0001
9e-05
3e-05
4e-05
9e-05
9e-05
3e-05
4e-05
8e-05
8e-05
4e-05
4e-05
8e-05
8e-05
4e-05
4e-05
7e-05
7e-05
4e-05
5e-05
7e-05
7e-05
4e-05
5e-05
7e-05
7e-05
4e-05
5e-05
6e-05
6e-05
4e-05
5e-05
6e-05
6e-05
4e-05
5e-05
6e-05
7e-05
4e-05
5e-05
7e-05
7e-05
4e-05
5e-05
7e-05
7e-05
3e-05
4e-05
8e-05
8e-05
3e-05
4e-05
9e-05
9e-05
3e-05
4e-05
9e-05
9e-05
3e-05
4e-05
0.0001
0.0001
3e-05
4e-05
0.0001
0.0001
3e-05
3e-05
0.0001
0.0001
3e-05
3e-05
0.0001
0.0001
3e-05
3e-05
0.0001
0.0001
3e-05
3e-05
0.0001
0.0001
3e-05
3e-05
0.0001
0.0001
3e-05
3e-05
0.0001
0.0001
3e-05
4e-05
0.0001
0.0001
3e-05
4e-05
0.0001
0.0001
4e-05
4e-05
0.0001
0.0001
4e-05
4e-05
9e-05
9e-05
4e-05
4e-05
8e-05
8e-05
5e-05
5e-05
7e-05
6e-05
6e-05
7e-05
5e-05
6e-05
6e-05
SCALARS strain_1 float
LOOKUP_TABLE default
-0.000083
-0.000083
-0.000120
-0.000084
-0.000108
-0.000096
-0.000113
-0.000119
-0.000225
-0.000283
-0.000189
-0.000251
-0.000291
-0.000247
-0.000383
-0.000253
-0.000487
-0.000272
-0.000706
-0.000213
-0.000843
-0.000157
-0.001186
-0.000051
-0.001428
0.000031
-0.001741
0.000218
-0.002121
0.000419
-0.002561
0.000666
-0.002977
0.000933
-0.003545
0.001224
-0.004084
0.001620
-0.004722
0.002090
-0.005365
-0.006086
0.002549
-0.006853
0.003081
-0.007637
0.003693
-0.008566
0.004348
-0.009406
0.005083
-0.010386
0.005888
-0.011389
0.006704
-0.012442
0.007645
-0.013513
0.008654
-0.014645
0.009696
-0.015754
0.010775
0.011887
-0.016974
0.013166
-0.018213
0.014475
-0.019507
0.015797
-0.020784
0.017223
-0.022074
0.018558
-0.023435
0.020071
-0.024803
0.021582
-0.026203
0.023169
-0.027561
0.024787
-0.029044
0.026448
-0.030369
0.028067
-0.031825
0.029758
-0.033187
0.031503
-0.034651
0.033204
-0.036048
-0.037429
0.034911
-0.038871
0.036636
-0.040254
0.038326
-0.041589
0.040111
-0.042847
0.041779
-0.044163
0.043416
-0.045514
0.045117
-0.046692
0.046707
-0.047930
0.048377
-0.049035
0.049942
-0.050122
0.051461
0.052941
-0.051239
0.054304
-0.052221
0.055673
-0.053126
0.056892
-0.054065
0.058231
-0.054833
0.059340
-0.055646
0.060429
-0.056411
0.061387
-0.057005
0.062333
-0.057581
0.063085
-0.058098
0.063890
-0.058582
0.064557
-0.058929
0.065110
-0.059211
0.065611
-0.059478
0.065966
-0.059645
0.066259
-0.059759
-0.059757
0.066443
-0.059675
0.066627
-0.059563
0.066576
-0.059349
0.066553
-0.059039
0.066338
-0.058748
0.066119
-0.058321
0.065765
-0.057884
0.065218
-0.057292
0.064745
-0.056664
0.064166
0.063459
-0.056009
0.062674
-0.055308
0.061818
-0.054521
0.060935
-0.053658
0.060023
-0.052801
0.058925
-0.051879
0.057880
-0.050813
0.056674
-0.049844
0.055540
-0.048717
0.054165
-0.047630
0.052897
-0.046462
0.051559
-0.045361
0.050160
-0.044097
0.048871
-0.042872
0.047357
-0.041619
0.045876
-0.040333
-0.039070
0.044467
-0.037753
0.042923
-0.036450
0.041492
-0.035142
0.039939
-0.033835
0.038447
-0.032521
0.036948
-0.031183
0.035431
-0.029891
0.033893
-0.028601
0.032447
-0.027306
0.031003
-0.026014
0.029555
-0.024741
0.028097
-0.023550
0.026695
-0.022317
0.025264
-0.021095
0.023960
-0.019904
0.022606
-0.018794
0.021323
-0.017679
0.020021
-0.016554
0.018811
-0.015580
0.017585
-0.014474
0.016491
-0.013548
0.015303
-0.012563
0.014267
-0.011668
0.013253
-0.010786
0.012231
-0.009894
0.011316
-0.009053
0.010391
-0.008356
0.009569
-0.007682
0.008769
-0.006925
0.007960
-0.006279
0.007216
-0.005689
0.006482
-0.005071
0.005874
-0.004556
0.005260
-0.004014
0.004681
-0.003556
0.004125
-0.003165
0.003653
-0.002749
0.003164
-0.002318
0.002746
-0.002051
0.002389
-0.001759
0.002095
-0.001495
0.001711
-0.001210
0.001470
-0.000979
0.001237
-0.000779
0.000919
-0.000639
0.000815
-0.000492
0.000523
-0.000348
0.000466
-0.000295
0.000351
-0.000158
0.000241
-0.000200
0.000178
-0.000067
0.000102
-0.000048