# vtk DataFile Version 2.0
Generated volume Mesh
ASCII
DATASET UNSTRUCTURED_GRID
POINTS 994 float
-0.416146 -0.294827 0.000000
-0.409251 -0.287252 0.000000
-0.421925 -0.286495 0.000000
-0.410201 -0.303043 0.000000
-0.427538 -0.278049 0.000000
-0.404095 -0.311138 0.000000
-0.432982 -0.269494 0.000000
-0.397829 -0.319111 0.000000
-0.438254 -0.260832 0.000000
-0.391406 -0.326958 0.000000
-0.443353 -0.252067 0.000000
-0.384828 -0.334675 0.000000
-0.448277 -0.243202 0.000000
-0.378098 -0.342260 0.000000
-0.453024 -0.234242 0.000000
-0.371218 -0.349710 0.000000
-0.457592 -0.225188 0.000000
-0.364192 -0.357021 0.000000
-0.461979 -0.216046 0.000000
-0.357021 -0.364192 0.000000
-0.466183 -0.206818 0.000000
-0.349710 -0.371218 0.000000
-0.470203 -0.197508 0.000000
-0.342260 -0.378098 0.000000
-0.474037 -0.188120 0.000000
-0.334675 -0.384828 0.000000
-0.477683 -0.178658 0.000000
-0.326958 -0.391406 0.000000
-0.481141 -0.169126 0.000000
-0.319111 -0.397829 0.000000
-0.484408 -0.159526 0.000000
-0.311138 -0.404095 0.000000
-0.487484 -0.149864 0.000000
-0.303043 -0.410201 0.000000
-0.490368 -0.140141 0.000000
-0.294827 -0.416146 0.000000
-0.493057 -0.130363 0.000000
-0.286495 -0.421925 0.000000
-0.495552 -0.120532 0.000000
-0.278049 -0.427538 0.000000
-0.497851 -0.110654 0.000000
-0.269494 -0.432982 0.000000
-0.499953 -0.100732 0.000000
-0.260832 -0.438254 0.000000
-0.501857 -0.090771 0.000000
-0.252067 -0.443353 0.000000
-0.503563 -0.080774 0.000000
-0.243202 -0.448277 0.000000
-0.505069 -0.070746 0.000000
-0.234242 -0.453024 0.000000
-0.506376 -0.060691 0.000000
-0.225188 -0.457592 0.000000
-0.507482 -0.050612 0.000000
-0.216046 -0.461979 0.000000
-0.508388 -0.040514 0.000000
-0.206818 -0.466183 0.000000
-0.509093 -0.030400 0.000000
-0.197508 -0.470203 0.000000
-0.509597 -0.020274 0.000000
-0.188120 -0.474037 0.000000
-0.509899 -0.010139 0.000000
-0.178658 -0.477683 0.000000
-0.510000 0.000000 0.000000
-0.169126 -0.481141 0.000000
-0.509899 0.010139 0.000000
-0.509597 0.020274 0.000000
-0.159526 -0.484408 0.000000
-0.509093 0.030400 0.000000
-0.149864 -0.487484 0.000000
-0.508388 0.040514 0.000000
-0.140141 -0.490368 0.000000
-0.507482 0.050612 0.000000
-0.130363 -0.493057 0.000000
-0.506376 0.060691 0.000000
-0.120532 -0.495552 0.000000
-0.505069 0.070746 0.000000
-0.110654 -0.497851 0.000000
-0.503563 0.080774 0.000000
-0.100732 -0.499953 0.000000
-0.501857 0.090771 0.000000
-0.090771 -0.501857 0.000000
-0.499953 0.100732 0.000000
-0.080774 -0.503563 0.000000
-0.497851 0.110654 0.000000
-0.070746 -0.505069 0.000000
-0.495552 0.120532 0.000000
-0.060691 -0.506376 0.000000
-0.493057 0.130363 0.000000
-0.050612 -0.507482 0.000000
-0.490368 0.140141 0.000000
-0.040514 -0.508388 0.000000
-0.487484 0.149864 0.000000
-0.484408 0.159526 0.000000
-0.030400 -0.509093 0.000000
-0.020274 -0.509597 0.000000
-0.481141 0.169126 0.000000
-0.010139 -0.509899 0.000000
-0.477683 0.178658 0.000000
0.000000 -0.510000 0.000000
-0.474037 0.188120 0.000000
0.010139 -0.509899 0.000000
-0.470203 0.197508 0.000000
0.020274 -0.509597 0.000000
-0.466183 0.206818 0.000000
0.030400 -0.509093 0.000000
-0.461979 0.216046 0.000000
0.040514 -0.508388 0.000000
-0.457592 0.225188 0.000000
0.050612 -0.507482 0.000000
-0.453024 0.234242 0.000000
0.060691 -0.506376 0.000000
-0.448277 0.243202 0.000000
0.070746 -0.505069 0.000000
-0.443353 0.252067 0.000000
0.080774 -0.503563 0.000000
-0.438254 0.260832 0.000000
0.090771 -0.501857 0.000000
-0.432982 0.269494 0.000000
0.100732 -0.499953 0.000000
-0.427538 0.278049 0.000000
0.110654 -0.497851 0.000000
-0.421925 0.286495 0.000000
0.120532 -0.495552 0.000000
-0.416146 0.294827 0.000000
0.130363 -0.493057 0.000000
-0.410201 0.303043 0.000000
0.140141 -0.490368 0.000000
-0.404095 0.311138 0.000000
0.149864 -0.487484 0.000000
0.159526 -0.484408 0.000000
-0.397829 0.319111 0.000000
0.169126 -0.481141 0.000000
-0.391406 0.326958 0.000000
0.178658 -0.477683 0.000000
-0.384828 0.334675 0.000000
0.188120 -0.474037 0.000000
-0.378098 0.342260 0.000000
0.197508 -0.470203 0.000000
-0.371218 0.349710 0.000000
0.206818 -0.466183 0.000000
-0.364192 0.357021 0.000000
0.216046 -0.461979 0.000000
-0.357021 0.364192 0.000000
0.225188 -0.457592 0.000000
-0.349710 0.371218 0.000000
0.234242 -0.453024 0.000000
-0.342260 0.378098 0.000000
0.243202 -0.448277 0.000000
-0.334675 0.384828 0.000000
0.252067 -0.443353 0.000000
-0.326958 0.391406 0.000000
0.260832 -0.438254 0.000000
-0.319111 0.397829 0.000000
0.269494 -0.432982 0.000000
-0.311138 0.404095 0.000000
0.278049 -0.427538 0.000000
-0.303043 0.410201 0.000000
0.286495 -0.421925 0.000000
-0.294827 0.416146 0.000000
0.294827 -0.416146 0.000000
-0.286495 0.421925 0.000000
0.303043 -0.410201 0.000000
-0.278049 0.427538 0.000000
0.311138 -0.404095 0.000000
-0.269494 0.432982 0.000000
0.319111 -0.397829 0.000000
-0.260832 0.438254 0.000000
0.326958 -0.391406 0.000000
-0.252067 0.443353 0.000000
0.334675 -0.384828 0.000000
-0.243202 0.448277 0.000000
0.342260 -0.378098 0.000000
-0.234242 0.453024 0.000000
0.349710 -0.371218 0.000000
-0.225188 0.457592 0.000000
0.357021 -0.364192 0.000000
-0.216046 0.461979 0.000000
0.364192 -0.357021 0.000000
-0.206818 0.466183 0.000000
0.371218 -0.349710 0.000000
-0.197508 0.470203 0.000000
0.378098 -0.342260 0.000000
-0.188120 0.474037 0.000000
0.384828 -0.334675 0.000000
-0.178658 0.477683 0.000000
0.391406 -0.326958 0.000000
-0.169126 0.481141 0.000000
0.397829 -0.319111 0.000000
-0.159526 0.484408 0.000000
0.404095 -0.311138 0.000000
-0.149864 0.487484 0.000000
0.410201 -0.303043 0.000000
-0.140141 0.490368 0.000000
0.416146 -0.294827 0.000000
-0.130363 0.493057 0.000000
0.421925 -0.286495 0.000000
-0.120532 0.495552 0.000000
0.427538 -0.278049 0.000000
-0.110654 0.497851 0.000000
0.432982 -0.269494 0.000000
-0.100732 0.499953 0.000000
0.438254 -0.260832 0.000000
-0.090771 0.501857 0.000000
0.443353 -0.252067 0.000000
-0.080774 0.503563 0.000000
0.448277 -0.243202 0.000000
-0.070746 0.505069 0.000000
0.453024 -0.234242 0.000000
-0.060691 0.506376 0.000000
0.457592 -0.225188 0.000000
-0.050612 0.507482 0.000000
0.461979 -0.216046 0.000000
-0.040514 0.508388 0.000000
0.466183 -0.206818 0.000000
-0.030400 0.509093 0.000000
0.470203 -0.197508 0.000000
-0.020274 0.509597 0.000000
0.474037 -0.188120 0.000000
-0.010139 0.509899 0.000000
0.477683 -0.178658 0.000000
0.000000 0.510000 0.000000
0.481141 -0.169126 0.000000
0.010139 0.509899 0.000000
0.484408 -0.159526 0.000000
0.020274 0.509597 0.000000
0.487484 -0.149864 0.000000
0.030400 0.509093 0.000000
0.490368 -0.140141 0.000000
0.040514 0.508388 0.000000
0.493057 -0.130363 0.000000
0.050612 0.507482 0.000000
0.495552 -0.120532 0.000000
0.060691 0.506376 0.000000
0.497851 -0.110654 0.000000
0.070746 0.505069 0.000000
0.499953 -0.100732 0.000000
0.080774 0.503563 0.000000
0.501857 -0.090771 0.000000
0.090771 0.501857 0.000000
0.503563 -0.080774 0.000000
0.100732 0.499953 0.000000
0.505069 -0.070746 0.000000
0.110654 0.497851 0.000000
0.506376 -0.060691 0.000000
0.120532 0.495552 0.000000
0.507482 -0.050612 0.000000
0.130363 0.493057 0.000000
0.508388 -0.040514 0.000000
0.140141 0.490368 0.000000
0.509093 -0.030400 0.000000
0.149864 0.487484 0.000000
0.509597 -0.020274 0.000000
0.159526 0.484408 0.000000
0.509899 -0.010139 0.000000
0.169126 0.481141 0.000000
0.510000 0.000000 0.000000
0.178658 0.477683 0.000000
0.509899 0.010139 0.000000
0.188120 0.474037 0.000000
0.509597 0.020274 0.000000
0.197508 0.470203 0.000000
0.509093 0.030400 0.000000
0.206818 0.466183 0.000000
0.508388 0.040514 0.000000
0.216046 0.461979 0.000000
0.507482 0.050612 0.000000
0.225188 0.457592 0.000000
0.506376 0.060691 0.000000
0.234242 0.453024 0.000000
0.505069 0.070746 0.000000
0.243202 0.448277 0.000000
0.503563 0.080774 0.000000
0.252067 0.443353 0.000000
0.501857 0.090771 0.000000
0.260832 0.438254 0.000000
0.499953 0.100732 0.000000
0.269494 0.432982 0.000000
0.497851 0.110654 0.000000
0.278049 0.427538 0.000000
0.495552 0.120532 0.000000
0.286495 0.421925 0.000000
0.493057 0.130363 0.000000
0.294827 0.416146 0.000000
0.490368 0.140141 0.000000
0.303043 0.410201 0.000000
0.487484 0.149864 0.000000
0.311138 0.404095 0.000000
0.484408 0.159526 0.000000
0.319111 0.397829 0.000000
0.481141 0.169126 0.000000
0.326958 0.391406 0.000000
0.477683 0.178658 0.000000
0.334675 0.384828 0.000000
0.474037 0.188120 0.000000
0.342260 0.378098 0.000000
0.470203 0.197508 0.000000
0.349710 0.371218 0.000000
0.466183 0.206818 0.000000
0.357021 0.364192 0.000000
0.461979 0.216046 0.000000
0.364192 0.357021 0.000000
0.457592 0.225188 0.000000
0.371218 0.349710 0.000000
0.453024 0.234242 0.000000
0.378098 0.342260 0.000000
0.448277 0.243202 0.000000
0.384828 0.334675 0.000000
0.443353 0.252067 0.000000
0.391406 0.326958 0.000000
0.438254 0.260832 0.000000
0.397829 0.319111 0.000000
0.432982 0.269494 0.000000
0.404095 0.311138 0.000000
0.427538 0.278049 0.000000
0.410201 0.303043 0.000000
0.421925 0.286495 0.000000
0.416146 0.294827 0.000000
-0.415025 -0.278844 0.000000
-0.403306 -0.295541 0.000000
-0.420627 -0.270320 0.000000
-0.397194 -0.303706 0.000000
-0.426054 -0.261684 0.000000
-0.390916 -0.311745 0.000000
-0.431303 -0.252938 0.000000
-0.384475 -0.319654 0.000000
-0.436373 -0.244088 0.000000
-0.377875 -0.327430 0.000000
-0.441261 -0.235136 0.000000
-0.371117 -0.335070 0.000000
-0.445965 -0.226086 0.000000
-0.364205 -0.342571 0.000000
-0.450484 -0.216942 0.000000
-0.357141 -0.349929 0.000000
-0.454816 -0.207707 0.000000
-0.349929 -0.357141 0.000000
-0.458958 -0.198386 0.000000
-0.342571 -0.364205 0.000000
-0.462910 -0.188983 0.000000
-0.335070 -0.371117 0.000000
-0.466668 -0.179501 0.000000
-0.327430 -0.377875 0.000000
-0.470233 -0.169944 0.000000
-0.319654 -0.384475 0.000000
-0.473602 -0.160317 0.000000
-0.311745 -0.390916 0.000000
-0.476773 -0.150623 0.000000
-0.303706 -0.397194 0.000000
-0.479747 -0.140866 0.000000
-0.295541 -0.403306 0.000000
-0.482520 -0.131050 0.000000
-0.287252 -0.409251 0.000000
-0.485094 -0.121178 0.000000
[...]
POINT_DATA 994
SCALARS u1 float
LOOKUP_TABLE default
-0.05
-0.06
-0.06
-0.04
-0.06
-0.04
-0.07
-0.03
-0.07
-0.03
-0.08
-0.03
-0.09
-0.02
-0.1
-0.02
-0.1
-0.02
-0.1
-0.02
-0.1
-0.02
-0.1
-0.02
-0.2
-0.02
-0.2
-0.02
-0.2
-0.02
-0.2
-0.02
-0.2
-0.03
-0.2
-0.03
-0.2
-0.03
-0.3
-0.03
-0.3
-0.03
-0.3
-0.04
-0.3
-0.04
-0.3
-0.04
-0.3
-0.05
-0.3
-0.05
-0.4
-0.05
-0.4
-0.06
-0.4
-0.06
-0.4
-0.07
-0.4
-0.07
-0.4
-0.07
-0.4
-0.4
-0.08
-0.4
-0.08
-0.4
-0.09
-0.4
-0.09
-0.4
-0.09
-0.3
-0.09
-0.3
-0.1
-0.3
-0.1
-0.3
-0.1
-0.3
-0.1
-0.3
-0.1
-0.3
-0.1
-0.3
-0.1
-0.3
-0.2
-0.1
-0.1
-0.2
-0.1
-0.2
-0.09
-0.2
-0.09
-0.2
-0.09
-0.2
-0.09
-0.2
-0.09
-0.2
-0.09
-0.2
-0.09
-0.2
-0.09
-0.1
-0.09
-0.1
-0.09
-0.1
-0.1
-0.1
-0.1
-0.1
-0.1
-0.1
-0.1
-0.1
-0.1
-0.1
-0.1
-0.1
-0.1
-0.1
-0.1
-0.1
-0.1
-0.1
-0.1
-0.1
-0.1
-0.1
-0.1
-0.1
-0.1
-0.2
-0.1
-0.2
-0.1
-0.2
-0.1
-0.2
-0.1
-0.2
-0.1
-0.2
-0.1
-0.2
-0.1
-0.2
-0.1
-0.2
-0.1
-0.2
-0.2
-0.2
-0.2
-0.2
-0.2
-0.2
-0.2
-0.2
-0.2
-0.2
-0.2
-0.2
-0.2
-0.2
-0.2
-0.2
-0.2
-0.2
-0.2
-0.2
-0.2
-0.2
-0.2
-0.2
-0.2
-0.2
-0.2
-0.2
-0.2
-0.2
-0.2
-0.2
-0.2
-0.2
-0.2
-0.2
-0.2
-0.2
-0.2
-0.2
-0.2
-0.2
-0.2
-0.2
-0.2
-0.2
-0.2
-0.2
-0.2
-0.2
-0.2
-0.1
-0.2
-0.1
-0.2
-0.1
-0.2
-0.1
-0.2
-0.1
-0.2
-0.09
-0.2
-0.07
-0.2
-0.06
-0.2
-0.05
-0.2
-0.03
-0.2
-0.02
-0.2
-0.008
-0.2
0.004
-0.2
0.02
-0.2
0.03
-0.2
0.03
-0.2
0.04
-0.2
0.05
-0.2
0.06
-0.3
0.06
-0.3
0.06
-0.3
0.06
-0.3
0.06
-0.3
0.05
-0.3
0.05
-0.3
0.04
-0.3
0.03
-0.3
0.02
-0.3
0.004
-0.3
-0.009
-0.3
-0.02
-0.3
-0.04
-0.3
-0.05
-0.3
-0.07
-0.3
-0.09
-0.3
-0.1
-0.3
-0.1
-0.3
-0.1
-0.3
-0.1
-0.3
-0.2
-0.3
-0.2
-0.3
-0.2
-0.3
-0.2
-0.3
-0.2
-0.3
-0.2
-0.3
-0.2
-0.3
-0.2
-0.3
-0.3
-0.3
-0.3
-0.3
-0.3
-0.3
-0.3
-0.3
-0.3
-0.3
-0.06
-0.05
-0.07
-0.04
-0.07
-0.04
-0.08
-0.03
-0.09
-0.03
-0.1
-0.03
-0.1
-0.02
-0.1
-0.02
-0.1
-0.02
-0.1
-0.02
-0.2
-0.02
-0.2
-0.02
-0.2
-0.02
-0.2
-0.02
-0.2
-0.02
-0.2
-0.02
-0.2
-0.03
-0.3
-0.03
-0.3
-0.03
-0.3
-0.03
-0.3
-0.03
-0.3
-0.04
-0.3
-0.04
-0.3
-0.04
-0.4
-0.04
-0.4
-0.05
-0.4
-0.05
-0.4
-0.05
-0.4
-0.06
-0.4
-0.06
-0.4
-0.06
-0.4
-0.07
-0.4
-0.07
-0.4
-0.08
-0.4
-0.08
-0.4
-0.08
-0.3
-0.08
-0.3
-0.09
-0.3
-0.09
-0.3
-0.09
-0.3
-0.09
-0.3
-0.09
-0.3
-0.09
-0.3
-0.09
-0.3
-0.09
-0.2
-0.09
-0.2
-0.1
-0.2
-0.1
-0.2
-0.1
-0.2
-0.1
-0.2
-0.1
-0.2
-0.1
-0.2
-0.1
-0.2
-0.1
-0.2
-0.1
-0.1
-0.1
-0.1
-0.1
-0.1
-0.1
-0.1
-0.1
-0.1
-0.1
-0.1
-0.1
-0.1
-0.1
-0.1
-0.1
-0.1
-0.1
-0.1
-0.1
-0.1
-0.1
-0.1
-0.2
-0.1
-0.2
-0.1
-0.2
-0.1
-0.2
-0.1
-0.2
-0.1
-0.2
-0.1
-0.2
-0.1
-0.2
-0.1
-0.2
-0.1
-0.2
-0.1
-0.2
-0.1
-0.2
-0.1
-0.2
-0.1
-0.2
-0.2
-0.2
-0.2
-0.2
-0.2
-0.2
-0.2
-0.2
-0.2
-0.2
-0.2
-0.2
-0.2
-0.2
-0.2
-0.2
-0.2
-0.2
-0.2
-0.2
-0.2
-0.2
-0.2
-0.2
-0.2
-0.2
-0.2
-0.2
-0.2
-0.2
-0.2
-0.2
-0.2
-0.2
-0.2
-0.2
-0.2
-0.2
-0.2
-0.2
-0.2
-0.2
-0.2
-0.2
-0.2
-0.1
-0.2
-0.1
-0.2
-0.1
-0.2
-0.1
-0.2
-0.1
-0.2
-0.09
-0.2
-0.07
-0.2
-0.06
-0.2
-0.05
-0.2
-0.03
-0.2
-0.02
-0.2
-0.008
-0.2
0.004
-0.2
0.01
-0.3
0.03
-0.3
0.03
-0.3
0.04
-0.3
0.05
-0.3
0.06
-0.3
0.06
-0.3
0.06
-0.3
0.06
-0.3
0.06
-0.3
0.05
-0.3
0.05
-0.3
0.04
-0.3
0.03
-0.3
0.02
-0.3
0.004
-0.3
-0.009
-0.3
-0.02
-0.3
-0.04
-0.3
-0.05
-0.3
-0.07
-0.3
-0.09
-0.3
-0.1
-0.3
-0.1
-0.3
-0.1
-0.3
-0.2
-0.3
-0.2
-0.3
-0.2
-0.3
-0.2
-0.3
-0.2
-0.3
-0.2
-0.3
-0.2
-0.3
-0.2
-0.3
-0.2
-0.3
-0.3
-0.3
-0.3
-0.3
-0.3
-0.3
-0.3
-0.3
-0.06
-0.05
-0.06
-0.04
-0.07
-0.04
-0.07
-0.03
-0.08
-0.03
-0.09
-0.03
-0.1
-0.1
-0.02
-0.1
-0.1
-0.02
-0.1
-0.1
-0.02
-0.1
-0.1
-0.02
-0.1
-0.2
-0.02
-0.2
-0.2
-0.02
-0.2
-0.2
-0.02
-0.2
-0.2
-0.02
-0.2
-0.02
-0.2
-0.02
-0.2
-0.03
-0.3
-0.03
-0.3
-0.03
-0.3
-0.03
-0.3
-0.03
-0.3
-0.04
-0.3
-0.04
-0.3
-0.04
-0.04
-0.3
-0.05
-0.05
-0.4
-0.05
-0.05
-0.4
-0.06
-0.05
-0.06
-0.06
-0.4
-0.06
-0.06
-0.4
-0.06
-0.07
-0.4
-0.07
-0.07
-0.4
-0.07
-0.4
-0.08
-0.4
-0.08
-0.4
-0.08
-0.4
-0.09
-0.4
-0.09
-0.3
-0.09
-0.3
-0.09
-0.3
-0.09
-0.3
-0.09
-0.3
-0.1
-0.3
-0.1
-0.3
-0.1
-0.3
-0.2
-0.2
-0.1
-0.2
-0.2
-0.09
-0.2
-0.2
-0.09
-0.2
-0.2
-0.09
-0.2
-0.2
-0.09
-0.2
-0.2
-0.09
-0.2
-0.2
-0.09
-0.2
-0.2
-0.1
-0.2
-0.1
-0.2
-0.1
-0.1
-0.1
-0.1
-0.1
-0.1
-0.1
-0.1
-0.1
-0.1
-0.1
-0.1
-0.1
-0.1
-0.1
-0.1
-0.1
-0.1
-0.1
-0.1
-0.1
-0.1
-0.1
-0.1
-0.1
-0.1
-0.1
-0.1
-0.1
-0.1
-0.1
-0.2
-0.1
-0.1
-0.2
-0.2
-0.1
-0.2
-0.2
-0.1
-0.2
-0.1
-0.2
-0.1
-0.2
-0.1
-0.2
-0.1
-0.2
-0.1
-0.2
-0.1
-0.2
-0.1
-0.2
-0.1
-0.2
-0.1
-0.2
-0.2
-0.2
-0.2
-0.2
-0.2
-0.2
-0.2
-0.2
-0.2
-0.2
-0.2
-0.2
-0.2
-0.2
-0.2
-0.2
-0.2
-0.2
-0.2
-0.2
-0.2
-0.2
-0.2
-0.2
-0.2
-0.2
-0.2
-0.2
-0.2
-0.2
-0.2
-0.2
-0.2
-0.2
-0.2
-0.2
-0.2
-0.2
-0.2
-0.2
-0.2
-0.2
-0.2
-0.2
-0.2
-0.2
-0.2
-0.2
-0.2
-0.2
-0.2
-0.2
-0.2
-0.2
-0.2
-0.1
-0.1
-0.2
-0.1
-0.1
-0.2
-0.1
-0.1
-0.2
-0.1
-0.1
-0.2
-0.1
-0.1
-0.2
-0.1
-0.09
-0.2
-0.08
-0.2
-0.07
-0.2
-0.05
-0.2
-0.04
-0.2
-0.03
-0.2
-0.01
-0.2
-0.004
-0.2
0.01
-0.2
0.02
-0.2
0.03
-0.2
0.04
-0.3
0.05
-0.3
0.05
-0.3
0.06
-0.3
0.06
-0.3
-0.3
0.06
-0.3
-0.3
0.06
-0.3
-0.3
0.06
-0.3
-0.3
0.05
-0.3
-0.3
0.04
-0.3
-0.3
0.03
-0.3
-0.3
0.02
-0.3
0.01
-0.3
-0.002
-0.3
-0.02
-0.3
-0.03
-0.3
-0.05
-0.3
-0.06
-0.3
-0.08
-0.3
-0.09
-0.3
-0.1
-0.3
-0.1
-0.3
-0.1
-0.1
-0.3
-0.2
-0.2
-0.3
-0.2
-0.2
-0.3
-0.2
-0.2
-0.3
-0.2
-0.2
-0.3
-0.2
-0.2
-0.3
-0.2
-0.2
-0.3
-0.2
-0.3
-0.2
-0.3
-0.2
-0.3
-0.3
-0.3
-0.3
-0.3
-0.3
-0.3
-0.3
-0.3
-0.3
SCALARS u2 float
LOOKUP_TABLE default
-0.1
-0.1
-0.1
-0.1
-0.1
-0.1
-0.2
-0.1
-0.2
-0.1
-0.2
-0.1
-0.2
-0.1
-0.2
-0.1
-0.2
-0.1
-0.2
-0.1
-0.2
-0.1
-0.2
-0.1
-0.2
-0.1
-0.2
-0.1
-0.2
-0.1
-0.2
-0.1
-0.2
-0.1
-0.2
-0.1
-0.2
-0.1
-0.2
-0.1
-0.2
-0.1
-0.2
-0.1
-0.2
-0.1
-0.2
-0.2
-0.2
-0.2
-0.2
-0.2
-0.2
-0.2
-0.2
-0.2
-0.2
-0.2
-0.2
-0.2
-0.2
-0.2
-0.2
-0.2
-0.2
-0.2
-0.2
-0.2
-0.3
-0.2
-0.3
-0.2
-0.3
-0.2
-0.3
-0.2
-0.3
-0.2
-0.3
-0.2
-0.3
-0.2
-0.3
-0.2
-0.3
-0.2
-0.4
-0.2
-0.4
-0.2
-0.4
-0.2
-0.3
-0.4
-0.4
-0.3
-0.4
-0.3
-0.4
-0.3
-0.4
-0.3
-0.4
-0.3
-0.4
-0.3
-0.4
-0.3
-0.3
-0.3
-0.3
-0.3
-0.3
-0.3
-0.3
-0.3
-0.3
-0.3
-0.3
-0.3
-0.3
-0.3
-0.3
-0.3
-0.2
-0.3
-0.2
-0.3
-0.2
-0.2
-0.3
-0.2
-0.3
-0.2
-0.3
-0.1
-0.3
-0.1
-0.3
-0.1
-0.3
-0.1
-0.3
-0.1
-0.3
-0.09
-0.3
-0.08
-0.3
-0.07
-0.3
-0.07
-0.3
-0.06
-0.3
-0.05
-0.3
-0.05
-0.3
-0.04
-0.3
-0.04
-0.3
-0.03
-0.3
-0.03
-0.3
-0.02
-0.2
-0.02
-0.2
-0.01
-0.2
-0.01
-0.2
-0.01
-0.2
-0.01
-0.2
-0.01
-0.2
-0.01
-0.2
-0.01
-0.2
-0.01
-0.1
-0.02
-0.1
-0.02
-0.1
-0.02
-0.1
-0.02
-0.08
-0.02
-0.07
-0.03
-0.05
-0.03
-0.04
-0.03
-0.02
-0.03
-0.007
-0.04
0.006
-0.04
0.02
-0.04
0.03
-0.05
0.04
-0.05
0.05
-0.06
0.05
-0.06
0.06
-0.07
0.06
-0.07
0.06
-0.07
0.06
-0.08
0.05
-0.08
0.05
-0.09
0.04
-0.09
0.03
-0.09
0.02
-0.09
0.01
-0.09
0.002
-0.1
-0.01
-0.1
-0.02
-0.1
-0.04
-0.1
-0.05
-0.1
-0.06
-0.1
-0.07
-0.09
-0.09
-0.09
-0.1
-0.09
-0.1
-0.09
-0.1
-0.09
-0.1
-0.09
-0.1
-0.09
-0.2
-0.09
-0.2
-0.09
-0.2
-0.09
-0.2
-0.09
-0.2
-0.09
-0.2
-0.09
-0.2
-0.1
-0.2
-0.1
-0.2
-0.1
-0.2
-0.1
-0.2
-0.1
-0.2
-0.1
-0.2
-0.1
-0.2
-0.1
-0.2
-0.1
-0.2
-0.1
-0.2
-0.1
-0.2
-0.1
-0.2
-0.2
-0.2
-0.2
-0.2
-0.2
-0.2
-0.2
-0.2
-0.2
-0.2
-0.2
-0.2
-0.2
-0.2
-0.2
-0.2
-0.1
-0.1
-0.1
-0.1
-0.1
-0.1
-0.2
-0.1
-0.2
-0.1
-0.2
-0.1
-0.2
-0.1
-0.2
-0.1
-0.2
-0.1
-0.2
-0.1
-0.2
-0.1
-0.2
-0.1
-0.2
-0.1
-0.2
-0.1
-0.2
-0.1
-0.2
-0.1
-0.2
-0.1
-0.2
-0.1
-0.2
-0.1
-0.2
-0.1
-0.2
-0.1
-0.2
-0.2
-0.2
-0.2
-0.2
-0.2
-0.2
-0.2
-0.2
-0.2
-0.2
-0.2
-0.2
-0.2
-0.2
-0.2
-0.2
-0.2
-0.2
-0.2
-0.2
-0.2
-0.2
-0.3
-0.2
-0.3
-0.2
-0.3
-0.2
-0.3
-0.2
-0.3
-0.2
-0.3
-0.2
-0.3
-0.2
-0.3
-0.2
-0.4
-0.3
-0.4
-0.3
-0.4
-0.3
-0.4
-0.3
-0.4
-0.3
-0.4
-0.3
-0.4
-0.3
-0.4
-0.3
-0.4
-0.3
-0.4
-0.3
-0.4
-0.3
-0.3
-0.3
-0.3
-0.3
-0.3
-0.3
-0.3
-0.3
-0.3
-0.3
-0.3
-0.3
-0.3
-0.3
-0.3
-0.3
-0.2
-0.3
-0.2
-0.3
-0.2
-0.3
-0.2
-0.3
-0.2
-0.3
-0.2
-0.3
-0.1
-0.3
-0.1
-0.3
-0.1
-0.3
-0.1
-0.3
-0.1
-0.3
-0.09
-0.3
-0.08
-0.3
-0.07
-0.3
-0.07
-0.3
-0.06
-0.3
-0.05
-0.3
-0.05
-0.3
-0.04
-0.3
-0.04
-0.3
-0.03
-0.2
-0.03
-0.2
-0.02
-0.2
-0.02
-0.2
-0.01
-0.2
-0.01
-0.2
-0.01
-0.2
-0.01
-0.2
-0.01
-0.2
-0.01
-0.1
-0.01
-0.1
-0.01
-0.1
-0.01
-0.1
-0.02
-0.08
-0.02
-0.07
-0.02
-0.05
-0.02
-0.04
-0.02
-0.02
-0.03
-0.008
-0.03
0.005
-0.03
0.02
-0.04
0.03
-0.04
0.04
-0.04
0.05
-0.04
0.05
-0.05
0.06
-0.05
0.06
-0.06
0.06
-0.06
0.06
-0.06
0.05
-0.07
0.05
-0.07
0.04
-0.07
0.03
-0.08
0.02
-0.08
0.01
-0.08
0.002
-0.08
-0.01
-0.09
-0.02
-0.09
-0.04
-0.09
-0.05
-0.09
-0.06
-0.09
-0.08
-0.09
-0.09
-0.09
-0.1
-0.09
-0.1
-0.09
-0.1
-0.09
-0.1
-0.1
-0.1
-0.1
-0.2
-0.1
-0.2
-0.1
-0.2
-0.1
-0.2
-0.1
-0.2
-0.1
-0.2
-0.1
-0.2
-0.1
-0.2
-0.1
-0.2
-0.1
-0.2
-0.1
-0.2
-0.1
-0.2
-0.1
-0.2
-0.1
-0.2
-0.1
-0.2
-0.1
-0.2
-0.2
-0.2
-0.2
-0.2
-0.2
-0.2
-0.2
-0.2
-0.2
-0.2
-0.2
-0.2
-0.2
-0.2
-0.2
-0.2
-0.2
-0.2
-0.2
-0.2
-0.1
-0.1
-0.1
-0.1
-0.1
-0.1
-0.2
-0.1
-0.2
-0.1
-0.2
-0.1
-0.2
-0.2
-0.1
-0.2
-0.2
-0.1
-0.2
-0.2
-0.1
-0.2
-0.2
-0.1
-0.2
-0.2
-0.1
-0.2
-0.2
-0.1
-0.2
-0.2
-0.1
-0.2
-0.2
-0.1
-0.2
-0.1
-0.2
-0.1
-0.2
-0.1
-0.2
-0.1
-0.2
-0.1
-0.2
-0.1
-0.2
-0.1
-0.2
-0.1
-0.2
-0.2
-0.2
-0.2
-0.2
-0.2
-0.2
-0.2
-0.2
-0.2
-0.2
-0.2
-0.2
-0.2
-0.2
-0.2
-0.2
-0.2
-0.2
-0.2
-0.2
-0.2
-0.2
-0.2
-0.2
-0.2
-0.2
-0.2
-0.3
-0.2
-0.3
-0.2
-0.3
-0.2
-0.3
-0.2
-0.3
-0.2
-0.3
-0.2
-0.3
-0.2
-0.3
-0.2
-0.3
-0.2
-0.4
-0.2
-0.4
-0.3
-0.4
-0.3
-0.3
-0.3
-0.4
-0.3
-0.3
-0.4
-0.3
-0.3
-0.4
-0.3
-0.3
-0.4
-0.3
-0.3
-0.4
-0.3
-0.3
-0.4
-0.3
-0.3
-0.4
-0.3
-0.3
-0.3
-0.3
-0.3
-0.3
-0.3
-0.3
-0.3
-0.3
-0.3
-0.3
-0.3
-0.3
-0.3
-0.3
-0.2
-0.3
-0.2
-0.3
-0.2
-0.3
-0.2
-0.2
-0.3
-0.2
-0.2
-0.3
-0.2
-0.2
-0.3
-0.2
-0.1
-0.3
-0.1
-0.1
-0.3
-0.1
-0.1
-0.3
-0.1
-0.1
-0.3
-0.1
-0.1
-0.3
-0.09
-0.3
-0.08
-0.3
-0.07
-0.3
-0.07
-0.3
-0.06
-0.3
-0.05
-0.3
-0.05
-0.3
-0.04
-0.3
-0.04
-0.3
-0.03
-0.3
-0.03
-0.2
-0.02
-0.2
-0.02
-0.2
-0.2
-0.01
-0.2
-0.2
-0.01
-0.2
-0.2
-0.01
-0.2
-0.2
-0.01
-0.2
-0.2
-0.01
-0.2
-0.2
-0.01
-0.2
-0.1
-0.01
-0.1
-0.1
-0.01
-0.1
-0.01
-0.1
-0.02
-0.09
-0.02
-0.07
-0.02
-0.06
-0.02
-0.04
-0.03
-0.03
-0.03
-0.02
-0.03
-0.0009
-0.03
0.01
-0.04
-0.04
0.02
-0.04
-0.04
0.03
-0.04
-0.05
0.04
-0.05
-0.05
0.05
-0.05
-0.05
0.06
-0.06
-0.06
0.06
-0.06
-0.06
0.06
-0.06
-0.07
0.06
-0.07
0.06
-0.07
0.05
-0.08
0.04
-0.08
0.04
-0.08
0.03
-0.09
0.02
-0.09
0.008
-0.09
-0.006
-0.09
-0.02
-0.09
-0.03
-0.09
-0.04
-0.09
-0.06
-0.09
-0.07
-0.09
-0.08
-0.09
-0.09
-0.1
-0.09
-0.1
-0.1
-0.09
-0.1
-0.1
-0.09
-0.1
-0.1
-0.09
-0.1
-0.1
-0.09
-0.1
-0.2
-0.09
-0.2
-0.2
-0.09
-0.2
-0.09
-0.2
-0.1
-0.2
-0.1
-0.2
-0.1
-0.2
-0.1
-0.2
-0.1
-0.2
-0.1
-0.2
-0.1
-0.2
-0.1
-0.2
-0.1
-0.2
-0.1
-0.1
-0.2
-0.1
-0.1
-0.2
-0.1
-0.1
-0.2
-0.1
-0.1
-0.2
-0.1
-0.1
-0.2
-0.2
-0.2
-0.2
-0.2
-0.2
-0.2
-0.2
-0.2
-0.2
-0.2
-0.2
-0.2
-0.2
-0.2
-0.2
-0.2
-0.2
-0.2
-0.2
-0.2
-0.2
SCALARS strain_1 float
LOOKUP_TABLE default
-0.312818
-0.207531
0.198883
-0.804026
0.731556
-1.261087
1.290942
-1.712936
1.862408
-2.130649
2.454002
-2.541203
3.076591
-2.923127
3.717109
-3.279722
4.369830
-3.622231
5.049515
-3.936499
5.737618
-4.229623
6.447437
-4.508808
7.188246
-4.761131
7.931604
-4.995759
8.701421
-5.218069
9.475860
-5.405621
10.284562
-5.585776
11.097988
-5.738764
11.925538
-5.882179
12.774398
-5.993333
13.627347
-6.097519
14.491585
-6.180824
15.366487
-6.254504
16.251188
-6.305880
17.148980
-6.347066
18.046289
-6.360726
18.963871
-6.375830
19.873011
-6.365772
20.797144
-6.354871
21.730028
-6.320810
22.650419
-6.270692
23.580140
-6.214555
24.510027
25.435420
-6.149961
26.367292
-6.077322
27.284017
-5.990416
28.194125
-5.885857
29.118594
-5.786737
30.018957
-5.670508
30.922046
-5.549519
31.805023
-5.422704
32.683846
-5.296800
33.553621
-5.158652
34.406019
-5.006586
35.241998
-4.858560
36.057369
-4.703996
36.866536
37.657246
-4.551579
-4.391573
38.427413
-4.239988
39.164685
-4.077090
39.899059
-3.912426
40.595608
-3.745542
41.280548
-3.587336
41.930165
-3.420988
42.562504
-3.262031
43.163380
-3.101824
43.743499
-2.942477
44.280990
-2.789267
44.804627
-2.634898
45.293267
-2.479658
45.743223
-2.347495
46.171311
-2.190478
46.561620
-2.059536
46.920246
-1.938119
47.249939
-1.800727
-1.674149
47.541899
-1.562059
47.801093
-1.450830
48.011987
-1.342685
48.209951
-1.239485
48.368226
-1.149204
48.483592
-1.056863
48.563851
-0.979587
48.617245
-0.907999
48.628749
-0.837024
48.592336
-0.773880
48.537029
-0.723618
48.444368
-0.681139
48.314560
-0.641841
48.145976
-0.610631
47.950323
-0.575474
47.712653
-0.556771
47.436368
-0.548475
47.130818
-0.544494
46.805254
-0.541208
46.439867
-0.549030
46.034993
-0.561761
45.603893
-0.587000
45.153386
-0.613196
44.660472
-0.652810
44.146612
-0.682708
43.595169
-0.732441
43.031621
-0.777396
42.428828
-0.833592
41.811298
-0.893612
41.164599
-0.964079
40.492959
-1.032457
39.813091
-1.105716
39.106871
-1.187575
38.369405
-1.260219
37.622613
-1.349570
36.855118
-1.443694
36.076886
-1.532850
35.294854
-1.630124
34.482121
-1.719195
33.669300
-1.832186
32.827554
-1.926410
31.992615
-2.033018
31.145657
-2.132991
30.290558
-2.241861
29.435225
-2.344889
28.568638
-2.458326
27.699432
-2.563037
26.831364
-2.673449
25.955969
-2.775659
25.083240
-2.890830
24.209728
-2.994182
23.342983
-3.099060
22.476861
-3.202796
21.610736
-3.301878
20.754707
-3.399369
19.888480
-3.494206
19.058907
-3.582611
18.221767
-3.677308
17.388514
-3.766223
16.570710
-3.853526
15.759178
-3.938378
14.965728
-4.009934
14.181323
-4.076384
13.416537
-4.134334
12.650005
-4.201492
11.909530
-4.262871
11.178976
-4.307976
10.470040
-4.349153
9.760844
-4.383842
9.083487
-4.417685
8.405583
-4.438229
7.759725
-4.441467
7.129648
-4.456457
6.510210
-4.455867
5.905658
-4.449353
5.322580
-4.419585
4.770229
-4.393427
4.219292
-4.346968
3.688795
-4.295347
3.183495
-4.247226
2.690677
-4.162712
2.216302
-4.089154
1.761465
-3.992753
1.328715
-3.885230
0.915718
-3.771712
0.508189
-3.632920
0.125396
-3.480687
-0.238522
-3.329793
-0.583460
-3.158254
-0.909907
-2.965342
-1.229964
-2.765580
-1.529225
-2.553972
-1.813679
-2.322080
-2.075028
0.314025
-0.695973
0.847695
-1.166812
1.417657
-1.621637
1.997680
-2.056059
2.596780
-2.468510
3.222785
-2.847877
3.869103
-3.216028
4.529134
-3.551846
5.215819
-3.878662
5.922449
-4.180372
6.641684
-4.464551
7.382940
-4.725116
8.140702
-4.954019
8.909968
-5.171419
9.699897
-5.375126
10.502773
-5.539035
11.325938
-5.708322
12.159353
-5.848587
13.011936
-5.971810
13.867685
-6.077399
14.729139
-6.158278
15.613758
-6.228891
16.494553
-6.283748
17.397381
-6.325436
18.299166
-6.347632
19.213073
-6.356943
20.123596
-6.344727
21.047314
-6.332256
21.971640
-6.297806
22.884361
-6.258868
23.797172
-6.199964
24.726772
-6.133072
25.644345
-6.057494
26.564636
-5.970680
27.472498
-5.879374
28.369011
-5.767858
29.268061
-5.660570
30.151208
-5.541073
31.036863
-5.411703
31.899243
-5.276277
32.752727
-5.143254
33.591065
-5.004472
34.418517
-4.857163
35.220870
-4.713310
36.016194
-4.560860
36.783936
-4.410834
37.541909
-4.248476
38.262743
-4.087258
38.980454
-3.933451
39.661587
-3.779014
40.315255
-3.616419
40.953893
-3.459731
41.550971
-3.307510
42.132829
-3.149918
42.689800
-2.998444
43.212088
-2.842384
43.706255
-2.700700
44.162748
-2.564022
44.592279
-2.422386
44.982725
-2.296322
45.347984
-2.168678
45.678484
-2.041667
45.974331
-1.917652
46.237198
-1.807037
46.461548
-1.699475
46.649195
-1.596969
46.803147
-1.503084
46.918248
-1.414563
47.004466
-1.333145
47.047130
-1.255948
47.064755
-1.174948
47.035455
-1.129849
46.961021
-1.060144
46.875607
-1.019081
46.740114
-0.975703
46.570734
-0.936263
46.361833
-0.909835
46.123978
-0.886802
45.855923
-0.872833
45.550302
-0.867335
45.208186
-0.864858
44.831847
-0.874839
44.433220
-0.883998
44.004821
-0.900796
43.535631
-0.925149
43.037703
-0.951724
42.512943
-0.993239
41.968644
-1.030571
41.393172
-1.086088
40.788210
-1.131147
40.164572
-1.193720
39.514294
-1.253707
38.838815
-1.323721
38.144194
-1.398770
37.427851
-1.474265
36.699125
-1.556819
35.949695
-1.635482
35.190256
-1.722859
34.396243
-1.812509
33.611071
-1.910079
32.804307
-1.999852
31.979477
-2.101383
31.151059
-2.195899
30.318292
-2.292475
29.466504
-2.403823
28.617259
-2.500809
27.760532
-2.603949
26.899941
-2.707060
26.029337
-2.814440
25.172510
-2.913892
24.305621
-3.015957
23.438892
-3.121000
22.579871
-3.225778
21.718021
-3.318462
20.860039
-3.419094
20.011748
-3.508658
19.169208
-3.605614
18.335945
-3.696310
17.503491
-3.787468
16.680124
-3.869962
15.865815
-3.948695
15.072131
-4.024530
14.287093
-4.091024
13.503956
-4.163198
12.737718
-4.219350
11.988599
-4.277567
11.256198
-4.319548
10.540264
-4.372159
9.828560
-4.402954
9.144255
-4.443675
8.472196
-4.465895
7.808574
-4.473528
7.183396
-4.483806
6.545022
-4.472694
5.948954
-4.468386
5.355639
-4.449787
4.786907
-4.420693
4.236760
-4.388910
3.707129
-4.331517
3.186161
-4.282067
2.694835
-4.209334
2.215322
-4.119297
1.758345
-4.027699
1.314011
-3.934441
0.899264
-3.814237
0.497252
-3.673571
0.109188
-3.517691
-0.262259
-3.366613
-0.613183
-3.192878
-0.945190
-3.014920
-1.255222
-2.805747
-1.571375
-2.592231
-2.353726
-1.845560
-2.100603
0.102387
-0.503226
0.540295
-0.983836
1.065913
-1.445162
1.636032
-1.886122
2.228421
-2.302065
2.832503
-2.695939
3.445530
3.931842
-3.112968
4.597069
4.264973
-3.428443
5.290550
4.962841
-3.749084
5.645732
6.001059
-4.049415
6.366802
6.744391
-4.288334
7.477875
7.096724
-4.614535
7.846234
8.239268
-4.868831
9.070472
8.604151
-5.086619
9.640380
-5.293289
10.401041
-5.473612
11.211642
-5.677715
12.038980
-5.799180
12.880614
-5.926260
13.731314
-6.039909
14.581209
-6.137247
15.308201
-6.221057
16.367437
-6.274905
17.268263
-6.318775
-6.341315
18.176587
-6.358125
-6.360606
19.084199
-6.361512
-6.368441
19.996698
-6.354610
-6.367049
-6.352396
-6.333018
21.124121
-6.320025
-6.294464
21.963157
-6.282613
-6.250590
22.914071
-6.227509
-6.185314
23.859971
-6.141360
25.070815
-6.066635
26.648203
-5.979222
27.370415
-5.882923
28.110769
-5.782594
29.196252
-5.672858
30.097944
-5.569248
30.972102
-5.422863
32.015937
-5.289638
32.744971
-5.144055
33.578370
-4.971180
34.415322
-4.860048
35.233528
-4.735364
36.037125
36.786686
37.391700
-4.459213
38.164305
37.787605
-4.265609
38.915650
38.526059
-4.102512
39.260617
39.613961
-3.941773
39.942798
40.315512
-3.794781
40.612144
40.967596
-3.606160
41.266917
41.620705
-3.440918
41.887097
42.288112
-3.279054
42.687059
-3.124851
43.213166
-2.969691
43.735367
-2.795178
44.234728
-2.676784
44.709522
-2.519425
45.160009
-2.382995
45.550080
-2.238153
45.879708
-2.111283
46.294402
-1.984652
46.615836
-1.862492
-1.768075
46.884873
-1.718392
-1.660122
47.126399
-1.604464
-1.543121
47.329269
-1.496865
-1.443090
47.546394
-1.397935
-1.343546
47.643652
-1.259192
-1.303651
47.735848
-1.227568
-1.169802
47.802879
-1.090343
-1.145457
47.824524
-1.036468
47.826047
-0.973300
47.780211
-0.922538
47.702281
-0.877124
47.587099
-0.832075
47.442205
-0.795741
47.255475
-0.771111
46.983094
-0.730033
46.766635
-0.719821
46.493765
-0.705780
46.167805
-0.705117
45.819960
-0.704556
45.443050
-0.723293
45.046126
44.762901
-0.733219
44.441479
44.219669
-0.764215
43.948852
43.717128
-0.775058
43.217648
43.446276
-0.822637
42.917259
42.648928
-0.855516
42.082649
42.362408
-0.912915
41.735893
41.456000
-0.966760
40.806292
41.118502
-1.014296
40.308541
-1.079488
39.676301
-1.150510
38.966088
-1.232118
38.259636
-1.297423
37.528763
-1.369108
36.783279
-1.455289
36.042478
-1.548492
35.396590
-1.625753
34.445614
-1.717705
33.633123
-1.815921
-1.876932
32.815281
-1.940356
-1.989149
31.993990
-2.044963
-2.085653
31.149832
-2.147623
-2.182637
30.130642
-2.240762
-2.294142
29.420341
-2.355033
-2.400576
28.587130
-2.456072
-2.503714
27.728727
-2.559481
-2.612854
26.884888
-2.698226
26.187655
-2.799713
24.953109
-2.904360
24.252648
-3.009016
23.566458
-3.101720
22.527694
-3.209907
21.661314
-3.283568
20.814558
-3.404626
19.766181
-3.509106
19.083153
-3.589469
18.268720
-3.711420
17.439977
-3.775091
16.623015
-3.842324
15.835085
-3.951555
15.068737
-4.001566
14.503922
14.047535
-4.098734
13.696210
13.259717
-4.155795
12.882817
12.505708
-4.210265
12.137207
11.775578
-4.257734
11.399518
11.056513
-4.325584
10.654606
10.318591
-4.350463
9.957700
9.636607
-4.402324
9.247351
-4.425762
8.742859
-4.449114
8.098528
-4.463503
7.470979
-4.466980
6.844168
-4.467296
6.225310
-4.452662
5.640149
-4.431701
5.070141
-4.400972
4.616895
-4.367025
3.951367
-4.323501