# vtk DataFile Version 2.0
Generated volume Mesh
ASCII
DATASET UNSTRUCTURED_GRID
POINTS 994 float
-0.416146 -0.294827 0.000000
-0.409251 -0.287252 0.000000
-0.421925 -0.286495 0.000000
-0.410201 -0.303043 0.000000
-0.427538 -0.278049 0.000000
-0.404095 -0.311138 0.000000
-0.432982 -0.269494 0.000000
-0.397829 -0.319111 0.000000
-0.438254 -0.260832 0.000000
-0.391406 -0.326958 0.000000
-0.443353 -0.252067 0.000000
-0.384828 -0.334675 0.000000
-0.448277 -0.243202 0.000000
-0.378098 -0.342260 0.000000
-0.453024 -0.234242 0.000000
-0.371218 -0.349710 0.000000
-0.457592 -0.225188 0.000000
-0.364192 -0.357021 0.000000
-0.461979 -0.216046 0.000000
-0.357021 -0.364192 0.000000
-0.466183 -0.206818 0.000000
-0.349710 -0.371218 0.000000
-0.470203 -0.197508 0.000000
-0.342260 -0.378098 0.000000
-0.474037 -0.188120 0.000000
-0.334675 -0.384828 0.000000
-0.477683 -0.178658 0.000000
-0.326958 -0.391406 0.000000
-0.481141 -0.169126 0.000000
-0.319111 -0.397829 0.000000
-0.484408 -0.159526 0.000000
-0.311138 -0.404095 0.000000
-0.487484 -0.149864 0.000000
-0.303043 -0.410201 0.000000
-0.490368 -0.140141 0.000000
-0.294827 -0.416146 0.000000
-0.493057 -0.130363 0.000000
-0.286495 -0.421925 0.000000
-0.495552 -0.120532 0.000000
-0.278049 -0.427538 0.000000
-0.497851 -0.110654 0.000000
-0.269494 -0.432982 0.000000
-0.499953 -0.100732 0.000000
-0.260832 -0.438254 0.000000
-0.501857 -0.090771 0.000000
-0.252067 -0.443353 0.000000
-0.503563 -0.080774 0.000000
-0.243202 -0.448277 0.000000
-0.505069 -0.070746 0.000000
-0.234242 -0.453024 0.000000
-0.506376 -0.060691 0.000000
-0.225188 -0.457592 0.000000
-0.507482 -0.050612 0.000000
-0.216046 -0.461979 0.000000
-0.508388 -0.040514 0.000000
-0.206818 -0.466183 0.000000
-0.509093 -0.030400 0.000000
-0.197508 -0.470203 0.000000
-0.509597 -0.020274 0.000000
-0.188120 -0.474037 0.000000
-0.509899 -0.010139 0.000000
-0.178658 -0.477683 0.000000
-0.510000 0.000000 0.000000
-0.169126 -0.481141 0.000000
-0.509899 0.010139 0.000000
-0.509597 0.020274 0.000000
-0.159526 -0.484408 0.000000
-0.509093 0.030400 0.000000
-0.149864 -0.487484 0.000000
-0.508388 0.040514 0.000000
-0.140141 -0.490368 0.000000
-0.507482 0.050612 0.000000
-0.130363 -0.493057 0.000000
-0.506376 0.060691 0.000000
-0.120532 -0.495552 0.000000
-0.505069 0.070746 0.000000
-0.110654 -0.497851 0.000000
-0.503563 0.080774 0.000000
-0.100732 -0.499953 0.000000
-0.501857 0.090771 0.000000
-0.090771 -0.501857 0.000000
-0.499953 0.100732 0.000000
-0.080774 -0.503563 0.000000
-0.497851 0.110654 0.000000
-0.070746 -0.505069 0.000000
-0.495552 0.120532 0.000000
-0.060691 -0.506376 0.000000
-0.493057 0.130363 0.000000
-0.050612 -0.507482 0.000000
-0.490368 0.140141 0.000000
-0.040514 -0.508388 0.000000
-0.487484 0.149864 0.000000
-0.484408 0.159526 0.000000
-0.030400 -0.509093 0.000000
-0.020274 -0.509597 0.000000
-0.481141 0.169126 0.000000
-0.010139 -0.509899 0.000000
-0.477683 0.178658 0.000000
0.000000 -0.510000 0.000000
-0.474037 0.188120 0.000000
0.010139 -0.509899 0.000000
-0.470203 0.197508 0.000000
0.020274 -0.509597 0.000000
-0.466183 0.206818 0.000000
0.030400 -0.509093 0.000000
-0.461979 0.216046 0.000000
0.040514 -0.508388 0.000000
-0.457592 0.225188 0.000000
0.050612 -0.507482 0.000000
-0.453024 0.234242 0.000000
0.060691 -0.506376 0.000000
-0.448277 0.243202 0.000000
0.070746 -0.505069 0.000000
-0.443353 0.252067 0.000000
0.080774 -0.503563 0.000000
-0.438254 0.260832 0.000000
0.090771 -0.501857 0.000000
-0.432982 0.269494 0.000000
0.100732 -0.499953 0.000000
-0.427538 0.278049 0.000000
0.110654 -0.497851 0.000000
-0.421925 0.286495 0.000000
0.120532 -0.495552 0.000000
-0.416146 0.294827 0.000000
0.130363 -0.493057 0.000000
-0.410201 0.303043 0.000000
0.140141 -0.490368 0.000000
-0.404095 0.311138 0.000000
0.149864 -0.487484 0.000000
0.159526 -0.484408 0.000000
-0.397829 0.319111 0.000000
0.169126 -0.481141 0.000000
-0.391406 0.326958 0.000000
0.178658 -0.477683 0.000000
-0.384828 0.334675 0.000000
0.188120 -0.474037 0.000000
-0.378098 0.342260 0.000000
0.197508 -0.470203 0.000000
-0.371218 0.349710 0.000000
0.206818 -0.466183 0.000000
-0.364192 0.357021 0.000000
0.216046 -0.461979 0.000000
-0.357021 0.364192 0.000000
0.225188 -0.457592 0.000000
-0.349710 0.371218 0.000000
0.234242 -0.453024 0.000000
-0.342260 0.378098 0.000000
0.243202 -0.448277 0.000000
-0.334675 0.384828 0.000000
0.252067 -0.443353 0.000000
-0.326958 0.391406 0.000000
0.260832 -0.438254 0.000000
-0.319111 0.397829 0.000000
0.269494 -0.432982 0.000000
-0.311138 0.404095 0.000000
0.278049 -0.427538 0.000000
-0.303043 0.410201 0.000000
0.286495 -0.421925 0.000000
-0.294827 0.416146 0.000000
0.294827 -0.416146 0.000000
-0.286495 0.421925 0.000000
0.303043 -0.410201 0.000000
-0.278049 0.427538 0.000000
0.311138 -0.404095 0.000000
-0.269494 0.432982 0.000000
0.319111 -0.397829 0.000000
-0.260832 0.438254 0.000000
0.326958 -0.391406 0.000000
-0.252067 0.443353 0.000000
0.334675 -0.384828 0.000000
-0.243202 0.448277 0.000000
0.342260 -0.378098 0.000000
-0.234242 0.453024 0.000000
0.349710 -0.371218 0.000000
-0.225188 0.457592 0.000000
0.357021 -0.364192 0.000000
-0.216046 0.461979 0.000000
0.364192 -0.357021 0.000000
-0.206818 0.466183 0.000000
0.371218 -0.349710 0.000000
-0.197508 0.470203 0.000000
0.378098 -0.342260 0.000000
-0.188120 0.474037 0.000000
0.384828 -0.334675 0.000000
-0.178658 0.477683 0.000000
0.391406 -0.326958 0.000000
-0.169126 0.481141 0.000000
0.397829 -0.319111 0.000000
-0.159526 0.484408 0.000000
0.404095 -0.311138 0.000000
-0.149864 0.487484 0.000000
0.410201 -0.303043 0.000000
-0.140141 0.490368 0.000000
0.416146 -0.294827 0.000000
-0.130363 0.493057 0.000000
0.421925 -0.286495 0.000000
-0.120532 0.495552 0.000000
0.427538 -0.278049 0.000000
-0.110654 0.497851 0.000000
0.432982 -0.269494 0.000000
-0.100732 0.499953 0.000000
0.438254 -0.260832 0.000000
-0.090771 0.501857 0.000000
0.443353 -0.252067 0.000000
-0.080774 0.503563 0.000000
0.448277 -0.243202 0.000000
-0.070746 0.505069 0.000000
0.453024 -0.234242 0.000000
-0.060691 0.506376 0.000000
0.457592 -0.225188 0.000000
-0.050612 0.507482 0.000000
0.461979 -0.216046 0.000000
-0.040514 0.508388 0.000000
0.466183 -0.206818 0.000000
-0.030400 0.509093 0.000000
0.470203 -0.197508 0.000000
-0.020274 0.509597 0.000000
0.474037 -0.188120 0.000000
-0.010139 0.509899 0.000000
0.477683 -0.178658 0.000000
0.000000 0.510000 0.000000
0.481141 -0.169126 0.000000
0.010139 0.509899 0.000000
0.484408 -0.159526 0.000000
0.020274 0.509597 0.000000
0.487484 -0.149864 0.000000
0.030400 0.509093 0.000000
0.490368 -0.140141 0.000000
0.040514 0.508388 0.000000
0.493057 -0.130363 0.000000
0.050612 0.507482 0.000000
0.495552 -0.120532 0.000000
0.060691 0.506376 0.000000
0.497851 -0.110654 0.000000
0.070746 0.505069 0.000000
0.499953 -0.100732 0.000000
0.080774 0.503563 0.000000
0.501857 -0.090771 0.000000
0.090771 0.501857 0.000000
0.503563 -0.080774 0.000000
0.100732 0.499953 0.000000
0.505069 -0.070746 0.000000
0.110654 0.497851 0.000000
0.506376 -0.060691 0.000000
0.120532 0.495552 0.000000
0.507482 -0.050612 0.000000
0.130363 0.493057 0.000000
0.508388 -0.040514 0.000000
0.140141 0.490368 0.000000
0.509093 -0.030400 0.000000
0.149864 0.487484 0.000000
0.509597 -0.020274 0.000000
0.159526 0.484408 0.000000
0.509899 -0.010139 0.000000
0.169126 0.481141 0.000000
0.510000 0.000000 0.000000
0.178658 0.477683 0.000000
0.509899 0.010139 0.000000
0.188120 0.474037 0.000000
0.509597 0.020274 0.000000
0.197508 0.470203 0.000000
0.509093 0.030400 0.000000
0.206818 0.466183 0.000000
0.508388 0.040514 0.000000
0.216046 0.461979 0.000000
0.507482 0.050612 0.000000
0.225188 0.457592 0.000000
0.506376 0.060691 0.000000
0.234242 0.453024 0.000000
0.505069 0.070746 0.000000
0.243202 0.448277 0.000000
0.503563 0.080774 0.000000
0.252067 0.443353 0.000000
0.501857 0.090771 0.000000
0.260832 0.438254 0.000000
0.499953 0.100732 0.000000
0.269494 0.432982 0.000000
0.497851 0.110654 0.000000
0.278049 0.427538 0.000000
0.495552 0.120532 0.000000
0.286495 0.421925 0.000000
0.493057 0.130363 0.000000
0.294827 0.416146 0.000000
0.490368 0.140141 0.000000
0.303043 0.410201 0.000000
0.487484 0.149864 0.000000
0.311138 0.404095 0.000000
0.484408 0.159526 0.000000
0.319111 0.397829 0.000000
0.481141 0.169126 0.000000
0.326958 0.391406 0.000000
0.477683 0.178658 0.000000
0.334675 0.384828 0.000000
0.474037 0.188120 0.000000
0.342260 0.378098 0.000000
0.470203 0.197508 0.000000
0.349710 0.371218 0.000000
0.466183 0.206818 0.000000
0.357021 0.364192 0.000000
0.461979 0.216046 0.000000
0.364192 0.357021 0.000000
0.457592 0.225188 0.000000
0.371218 0.349710 0.000000
0.453024 0.234242 0.000000
0.378098 0.342260 0.000000
0.448277 0.243202 0.000000
0.384828 0.334675 0.000000
0.443353 0.252067 0.000000
0.391406 0.326958 0.000000
0.438254 0.260832 0.000000
0.397829 0.319111 0.000000
0.432982 0.269494 0.000000
0.404095 0.311138 0.000000
0.427538 0.278049 0.000000
0.410201 0.303043 0.000000
0.421925 0.286495 0.000000
0.416146 0.294827 0.000000
-0.415025 -0.278844 0.000000
-0.403306 -0.295541 0.000000
-0.420627 -0.270320 0.000000
-0.397194 -0.303706 0.000000
-0.426054 -0.261684 0.000000
-0.390916 -0.311745 0.000000
-0.431303 -0.252938 0.000000
-0.384475 -0.319654 0.000000
-0.436373 -0.244088 0.000000
-0.377875 -0.327430 0.000000
-0.441261 -0.235136 0.000000
-0.371117 -0.335070 0.000000
-0.445965 -0.226086 0.000000
-0.364205 -0.342571 0.000000
-0.450484 -0.216942 0.000000
-0.357141 -0.349929 0.000000
-0.454816 -0.207707 0.000000
-0.349929 -0.357141 0.000000
-0.458958 -0.198386 0.000000
-0.342571 -0.364205 0.000000
-0.462910 -0.188983 0.000000
-0.335070 -0.371117 0.000000
-0.466668 -0.179501 0.000000
-0.327430 -0.377875 0.000000
-0.470233 -0.169944 0.000000
-0.319654 -0.384475 0.000000
-0.473602 -0.160317 0.000000
-0.311745 -0.390916 0.000000
-0.476773 -0.150623 0.000000
-0.303706 -0.397194 0.000000
-0.479747 -0.140866 0.000000
-0.295541 -0.403306 0.000000
-0.482520 -0.131050 0.000000
-0.287252 -0.409251 0.000000
-0.485094 -0.121178 0.000000
[...]
POINT_DATA 994
SCALARS u1 float
LOOKUP_TABLE default
-0.3
-0.3
-0.3
-0.2
-0.3
-0.2
-0.4
-0.2
-0.4
-0.2
-0.4
-0.1
-0.5
-0.1
-0.5
-0.1
-0.6
-0.1
-0.6
-0.09
-0.7
-0.09
-0.8
-0.09
-0.8
-0.1
-0.9
-0.1
-1
-0.1
-1
-0.1
-1
-0.1
-1
-0.1
-1
-0.2
-1
-0.2
-1
-0.2
-2
-0.2
-2
-0.2
-2
-0.2
-2
-0.2
-2
-0.3
-2
-0.3
-2
-0.3
-2
-0.3
-2
-0.4
-2
-0.4
-2
-0.4
-2
-2
-0.4
-2
-0.4
-2
-0.5
-2
-0.5
-2
-0.5
-2
-0.5
-2
-0.5
-2
-0.5
-2
-0.5
-2
-0.5
-2
-0.5
-1
-0.5
-1
-0.5
-1
-1
-0.5
-0.5
-1
-0.5
-1
-0.5
-1
-0.5
-1
-0.5
-1
-0.5
-0.9
-0.5
-0.9
-0.5
-0.9
-0.5
-0.8
-0.5
-0.8
-0.5
-0.8
-0.5
-0.7
-0.5
-0.7
-0.5
-0.7
-0.5
-0.7
-0.6
-0.7
-0.6
-0.6
-0.6
-0.6
-0.6
-0.7
-0.6
-0.7
-0.6
-0.7
-0.6
-0.7
-0.6
-0.8
-0.6
-0.8
-0.6
-0.8
-0.6
-0.9
-0.6
-0.9
-0.7
-0.9
-0.7
-0.9
-0.7
-0.9
-0.7
-1
-0.7
-1
-0.7
-1
-0.8
-1
-0.8
-1
-0.8
-1
-0.8
-1
-0.9
-1
-0.9
-1
-0.9
-1
-0.9
-1
-1
-1
-1
-1
-1
-1
-1
-1
-1
-1
-1
-1
-1
-1
-1
-1
-1
-1
-1
-1
-1
-1
-1
-1
-1
-1
-1
-1
-1
-0.9
-1
-0.9
-1
-0.9
-1
-0.8
-1
-0.8
-1
-0.7
-1
-0.7
-1
-0.6
-1
-0.5
-1
-0.5
-1
-0.4
-1
-0.3
-1
-0.3
-1
-0.2
-1
-0.1
-1
-0.05
-1
0.02
-1
0.08
-1
0.1
-1
0.2
-1
0.2
-1
0.3
-1
0.3
-1
0.3
-1
0.3
-1
0.3
-1
0.3
-1
0.3
-1
0.2
-1
0.2
-1
0.1
-2
0.09
-2
0.02
-2
-0.05
-2
-0.1
-2
-0.2
-2
-0.3
-2
-0.4
-2
-0.5
-2
-0.5
-2
-0.6
-2
-0.7
-2
-0.8
-2
-0.9
-2
-1
-2
-1
-2
-1
-2
-1
-2
-1
-2
-1
-2
-1
-2
-1
-2
-1
-2
-1
-2
-1
-2
-2
-2
-0.3
-0.3
-0.4
-0.2
-0.4
-0.2
-0.4
-0.2
-0.5
-0.2
-0.5
-0.1
-0.6
-0.1
-0.6
-0.1
-0.7
-0.1
-0.8
-0.09
-0.8
-0.09
-0.9
-0.09
-1
-0.1
-1
-0.1
-1
-0.1
-1
-0.1
-1
-0.1
-1
-0.1
-1
-0.2
-2
-0.2
-2
-0.2
-2
-0.2
-2
-0.2
-2
-0.2
-2
-0.2
-2
-0.3
-2
-0.3
-2
-0.3
-2
-0.3
-2
-0.3
-2
-0.3
-2
-0.4
-2
-0.4
-2
-0.4
-2
-0.4
-2
-0.4
-2
-0.4
-2
-0.5
-2
-0.5
-2
-0.5
-2
-0.5
-2
-0.5
-1
-0.5
-1
-0.5
-1
-0.5
-1
-0.5
-1
-0.5
-1
-0.5
-1
-0.5
-1
-0.5
-1
-0.5
-0.9
-0.5
-0.9
-0.5
-0.8
-0.6
-0.8
-0.6
-0.8
-0.6
-0.8
-0.6
-0.7
-0.6
-0.7
-0.6
-0.7
-0.7
-0.7
-0.7
-0.7
-0.7
-0.6
-0.7
-0.6
-0.7
-0.6
-0.8
-0.6
-0.8
-0.6
-0.8
-0.6
-0.8
-0.6
-0.9
-0.6
-0.9
-0.6
-0.9
-0.6
-0.9
-0.7
-1
-0.7
-1
-0.7
-1
-0.7
-1
-0.7
-1
-0.7
-1
-0.8
-1
-0.8
-1
-0.8
-1
-0.8
-1
-0.8
-1
-0.9
-1
-0.9
-1
-0.9
-1
-0.9
-1
-1
-1
-1
-1
-1
-1
-1
-1
-1
-1
-1
-1
-1
-1
-1
-1
-1
-1
-1
-1
-1
-1
-1
-0.9
-1
-0.9
-1
-0.9
-1
-0.8
-1
-0.8
-1
-0.7
-1
-0.7
-1
-0.6
-1
-0.5
-1
-0.5
-1
-0.4
-1
-0.3
-1
-0.3
-1
-0.2
-1
-0.1
-1
-0.05
-1
0.01
-1
0.07
-1
0.1
-1
0.2
-1
0.2
-1
0.3
-1
0.3
-1
0.3
-1
0.3
-1
0.3
-1
0.3
-1
0.3
-2
0.2
-2
0.2
-2
0.1
-2
0.09
-2
0.02
-2
-0.05
-2
-0.1
-2
-0.2
-2
-0.3
-2
-0.4
-2
-0.5
-2
-0.5
-2
-0.6
-2
-0.7
-2
-0.8
-2
-0.9
-2
-1
-2
-1
-2
-1
-2
-1
-2
-1
-2
-1
-2
-1
-2
-1
-2
-1
-2
-1
-1
-2
-2
-0.3
-0.3
-0.3
-0.2
-0.4
-0.2
-0.4
-0.2
-0.4
-0.2
-0.5
-0.1
-0.5
-0.6
-0.1
-0.6
-0.6
-0.1
-0.7
-0.6
-0.1
-0.7
-0.7
-0.09
-0.8
-0.8
-0.09
-0.9
-0.8
-0.09
-0.9
-1
-0.1
-1
-1
-0.1
-1
-0.1
-1
-0.1
-1
-0.1
-1
-0.1
-1
-0.2
-2
-0.2
-2
-0.2
-2
-0.2
-2
-0.2
-2
-0.2
-0.2
-2
-0.3
-0.2
-2
-0.3
-0.3
-2
-0.3
-0.3
-0.3
-0.3
-2
-0.3
-0.3
-2
-0.3
-0.4
-2
-0.4
-0.4
-2
-0.4
-2
-0.4
-2
-0.4
-2
-0.4
-2
-0.5
-2
-0.5
-2
-0.5
-2
-0.5
-2
-0.5
-2
-0.5
-2
-0.5
-2
-0.5
-1
-0.5
-1
-1
-1
-0.5
-1
-1
-0.5
-1
-1
-0.5
-1
-1
-0.5
-1
-1
-0.5
-1
-1
-0.5
-0.9
-0.9
-0.5
-0.9
-0.9
-0.5
-0.8
-0.5
-0.8
-0.5
-0.8
-0.5
-0.8
-0.5
-0.7
-0.6
-0.7
-0.6
-0.7
-0.6
-0.7
-0.6
-0.7
-0.6
-0.6
-0.7
-0.7
-0.6
-0.7
-0.7
-0.6
-0.7
-0.7
-0.6
-0.7
-0.8
-0.6
-0.8
-0.8
-0.6
-0.8
-0.8
-0.6
-0.8
-0.8
-0.6
-0.9
-0.9
-0.6
-0.9
-0.6
-0.9
-0.7
-0.9
-0.7
-1
-0.7
-1
-0.7
-1
-0.7
-1
-0.8
-1
-0.8
-1
-0.8
-1
-0.8
-1
-0.8
-1
-0.9
-1
-0.9
-0.9
-1
-0.9
-0.9
-1
-0.9
-0.9
-1
-1
-1
-1
-1
-1
-1
-1
-1
-1
-1
-1
-1
-1
-1
-1
-1
-1
-1
-1
-1
-1
-1
-1
-1
-1
-1
-1
-1
-1
-1
-1
-1
-0.9
-1
-0.9
-0.9
-1
-0.8
-0.8
-1
-0.8
-0.8
-1
-0.8
-0.7
-1
-0.7
-0.7
-1
-0.6
-0.6
-1
-0.6
-0.5
-1
-0.5
-0.5
-1
-0.4
-1
-0.4
-1
-0.3
-1
-0.2
-1
-0.1
-1
-0.08
-1
-0.03
-1
0.05
-1
0.1
-1
0.2
-1
0.2
-1
0.2
-1
0.3
-1
0.3
-1
0.3
-1
-1
0.3
-1
-1
0.3
-1
-1
0.3
-1
-1
0.3
-1
-2
0.2
-2
-2
0.2
-2
-2
0.1
-2
0.05
-2
-0.02
-2
-0.1
-2
-0.2
-2
-0.2
-2
-0.3
-2
-0.4
-2
-0.5
-2
-0.6
-2
-0.7
-2
-0.7
-0.8
-2
-0.8
-0.9
-2
-0.9
-0.9
-2
-1
-1
-2
-1
-1
-2
-1
-1
-2
-1
-1
-2
-1
-2
-1
-2
-1
-2
-1
-2
-1
-2
-1
-2
-1
-1
-2
SCALARS u2 float
LOOKUP_TABLE default
-0.7
-0.7
-0.8
-0.7
-0.8
-0.7
-0.8
-0.7
-0.8
-0.7
-0.9
-0.7
-0.9
-0.6
-0.9
-0.6
-0.9
-0.6
-1
-0.6
-1
-0.6
-1
-0.6
-1
-0.6
-1
-0.6
-1
-0.6
-1
-0.6
-1
-0.7
-1
-0.7
-1
-0.7
-1
-0.7
-1
-0.7
-1
-0.8
-1
-0.8
-1
-0.8
-1
-0.8
-1
-0.9
-1
-0.9
-1
-1
-1
-1
-1
-1
-1
-1
-1
-1
-1
-1
-1
-1
-1
-1
-1
-1
-1
-1
-2
-1
-2
-1
-2
-1
-2
-1
-2
-1
-2
-1
-2
-1
-2
-1
-2
-1
-1
-2
-2
-1
-2
-1
-2
-1
-2
-1
-2
-1
-2
-1
-2
-1
-2
-2
-2
-2
-2
-2
-2
-2
-2
-2
-2
-2
-1
-2
-1
-2
-1
-2
-1
-2
-1
-1
-2
-0.9
-2
-0.9
-2
-0.8
-2
-0.7
-2
-0.6
-2
-0.6
-2
-0.5
-2
-0.5
-2
-0.4
-2
-0.4
-2
-0.3
-2
-0.3
-2
-0.3
-2
-0.2
-1
-0.2
-1
-0.2
-1
-0.2
-1
-0.1
-1
-0.1
-1
-0.09
-1
-0.07
-1
-0.06
-1
-0.05
-1
-0.05
-1
-0.05
-1
-0.05
-0.9
-0.06
-0.8
-0.07
-0.8
-0.08
-0.7
-0.09
-0.6
-0.1
-0.5
-0.1
-0.4
-0.1
-0.4
-0.1
-0.3
-0.1
-0.2
-0.2
-0.1
-0.2
-0.04
-0.2
0.03
-0.2
0.1
-0.2
0.2
-0.3
0.2
-0.3
0.3
-0.3
0.3
-0.3
0.3
-0.4
0.3
-0.4
0.3
-0.4
0.3
-0.4
0.3
-0.4
0.3
-0.5
0.2
-0.5
0.2
-0.5
0.1
-0.5
0.07
-0.5
0.01
-0.5
-0.05
-0.5
-0.1
-0.5
-0.2
-0.5
-0.3
-0.5
-0.3
-0.5
-0.4
-0.5
-0.5
-0.5
-0.5
-0.5
-0.6
-0.5
-0.7
-0.5
-0.7
-0.5
-0.8
-0.5
-0.8
-0.5
-0.9
-0.5
-0.9
-0.5
-0.9
-0.5
-1
-0.5
-1
-0.5
-1
-0.5
-1
-0.5
-1
-0.6
-1
-0.6
-1
-0.6
-1
-0.6
-1
-0.7
-1
-0.7
-1
-0.7
-1
-0.7
-1
-0.8
-1
-0.8
-1
-0.8
-1
-0.9
-1
-0.9
-1
-0.9
-1
-0.9
-1
-1
-1
-1
-1
-1
-1
-0.7
-0.7
-0.8
-0.7
-0.8
-0.7
-0.8
-0.6
-0.8
-0.6
-0.8
-0.6
-0.9
-0.6
-0.9
-0.6
-0.9
-0.6
-0.9
-0.6
-1
-0.6
-1
-0.6
-1
-0.6
-1
-0.6
-1
-0.7
-1
-0.7
-1
-0.7
-1
-0.7
-1
-0.7
-1
-0.8
-1
-0.8
-1
-0.8
-1
-0.8
-1
-0.9
-1
-0.9
-1
-1
-1
-1
-1
-1
-1
-1
-1
-1
-1
-1
-1
-1
-1
-1
-1
-1
-1
-2
-1
-2
-1
-2
-1
-2
-1
-2
-1
-2
-1
-2
-1
-2
-1
-2
-1
-2
-1
-2
-1
-2
-1
-2
-1
-2
-1
-2
-1
-2
-2
-2
-2
-2
-2
-2
-2
-2
-2
-2
-2
-2
-2
-1
-2
-1
-2
-1
-2
-1
-2
-1
-2
-1
-2
-1
-2
-0.9
-2
-0.8
-2
-0.8
-2
-0.7
-2
-0.6
-2
-0.6
-2
-0.5
-2
-0.5
-2
-0.4
-2
-0.4
-2
-0.3
-2
-0.3
-1
-0.3
-1
-0.2
-1
-0.2
-1
-0.2
-1
-0.2
-1
-0.1
-1
-0.1
-1
-0.09
-1
-0.07
-1
-0.06
-1
-0.05
-1
-0.05
-0.9
-0.05
-0.9
-0.05
-0.8
-0.06
-0.7
-0.07
-0.6
-0.08
-0.5
-0.09
-0.4
-0.1
-0.4
-0.1
-0.3
-0.1
-0.2
-0.1
-0.1
-0.1
-0.04
-0.2
0.03
-0.2
0.1
-0.2
0.2
-0.2
0.2
-0.2
0.3
-0.2
0.3
-0.3
0.3
-0.3
0.3
-0.3
0.3
-0.3
0.3
-0.3
0.3
-0.4
0.3
-0.4
0.2
-0.4
0.2
-0.4
0.1
-0.4
0.07
-0.4
0.009
-0.5
-0.06
-0.5
-0.1
-0.5
-0.2
-0.5
-0.3
-0.5
-0.3
-0.5
-0.4
-0.5
-0.5
-0.5
-0.5
-0.5
-0.6
-0.5
-0.7
-0.5
-0.7
-0.5
-0.8
-0.5
-0.8
-0.5
-0.9
-0.5
-0.9
-0.5
-0.9
-0.6
-1
-0.6
-1
-0.6
-1
-0.6
-1
-0.6
-1
-0.6
-1
-0.7
-1
-0.7
-1
-0.7
-1
-0.7
-1
-0.8
-1
-0.8
-1
-0.8
-1
-0.8
-1
-0.9
-1
-0.9
-1
-0.9
-1
-0.9
-1
-1
-1
-1
-1
-1
-1
-1
-1
-0.7
-0.7
-0.8
-0.7
-0.8
-0.7
-0.8
-0.7
-0.8
-0.7
-0.8
-0.6
-0.9
-0.9
-0.6
-0.9
-0.9
-0.6
-0.9
-0.9
-0.6
-1
-1
-0.6
-1
-1
-0.6
-1
-1
-0.6
-1
-1
-0.6
-1
-1
-0.6
-1
-0.6
-1
-0.7
-1
-0.7
-1
-0.7
-1
-0.7
-1
-0.7
-1
-0.8
-1
-0.8
-1
-0.8
-1
-0.8
-0.9
-1
-0.9
-0.9
-1
-1
-0.9
-1
-1
-1
-1
-1
-1
-1
-1
-1
-1
-1
-1
-1
-1
-1
-1
-1
-1
-1
-1
-1
-1
-1
-2
-1
-2
-1
-2
-1
-2
-1
-2
-1
-2
-1
-2
-1
-2
-1
-2
-1
-1
-1
-2
-1
-1
-2
-1
-1
-2
-1
-1
-2
-1
-1
-2
-1
-1
-2
-1
-2
-2
-2
-2
-2
-2
-2
-2
-2
-2
-2
-2
-2
-2
-1
-2
-1
-2
-1
-2
-1
-2
-1
-2
-1
-1
-2
-1
-0.9
-2
-0.9
-0.8
-2
-0.8
-0.8
-2
-0.7
-0.7
-2
-0.6
-0.7
-2
-0.6
-0.6
-2
-0.5
-0.5
-2
-0.5
-2
-0.4
-2
-0.4
-2
-0.3
-2
-0.3
-2
-0.3
-1
-0.3
-1
-0.2
-1
-0.2
-1
-0.2
-1
-0.1
-1
-0.1
-1
-0.09
-1
-1
-0.07
-1
-1
-0.06
-1
-1
-0.05
-1
-1
-0.05
-1
-0.9
-0.05
-0.9
-0.9
-0.05
-0.8
-0.8
-0.06
-0.7
-0.8
-0.07
-0.6
-0.08
-0.6
-0.09
-0.5
-0.1
-0.4
-0.1
-0.3
-0.1
-0.2
-0.1
-0.2
-0.1
-0.09
-0.2
-0.003
-0.2
0.07
-0.2
-0.2
0.1
-0.2
-0.2
0.2
-0.2
-0.2
0.2
-0.3
-0.3
0.3
-0.3
-0.3
0.3
-0.3
-0.3
0.3
-0.3
-0.3
0.3
-0.3
-0.4
0.3
-0.4
0.3
-0.4
0.3
-0.4
0.2
-0.4
0.2
-0.4
0.2
-0.5
0.1
-0.5
0.04
-0.5
-0.04
-0.5
-0.09
-0.5
-0.2
-0.5
-0.2
-0.5
-0.3
-0.5
-0.4
-0.5
-0.4
-0.5
-0.5
-0.5
-0.5
-0.6
-0.6
-0.5
-0.6
-0.7
-0.5
-0.7
-0.7
-0.5
-0.7
-0.8
-0.5
-0.8
-0.8
-0.5
-0.8
-0.9
-0.5
-0.9
-0.5
-0.9
-0.5
-0.9
-0.5
-1
-0.5
-1
-0.6
-1
-0.6
-1
-0.6
-1
-0.6
-1
-0.6
-1
-0.7
-1
-0.7
-0.7
-1
-0.7
-0.7
-1
-0.7
-0.7
-1
-0.8
-0.8
-1
-0.8
-0.8
-1
-0.8
-0.8
-1
-0.9
-0.8
-1
-0.9
-1
-0.9
-1
-0.9
-1
-0.9
-1
-1
-1
-1
-1
-1
-1
-1
SCALARS strain_1 float
LOOKUP_TABLE default
-1.681151
-1.083956
1.076396
-4.294767
3.921678
-6.799214
6.860568
-9.153495
9.869217
-11.401102
13.104318
-13.583044
16.385711
-15.593930
19.762684
-17.449400
23.215766
-19.288203
26.832799
-20.996097
30.544484
-22.528744
34.353216
-24.010185
38.302936
-25.374089
42.323812
-26.611744
46.405018
-27.748557
50.622802
-28.787574
54.853012
-29.712292
59.233363
-30.555442
63.664235
-31.298076
68.131386
-31.929044
72.750978
-32.421625
77.329627
-32.972126
82.037676
-33.307249
86.799377
-33.594550
91.555133
-33.790242
96.431770
-33.870886
101.353132
-33.941171
106.265850
-33.897131
111.211890
-33.796035
116.159428
-33.600401
121.107464
-33.384078
126.124698
-33.102794
131.086083
136.058388
-32.701389
141.023968
-32.297778
146.022757
-31.857314
150.961895
-31.371872
155.849578
-30.806397
160.736521
-30.151810
165.592793
-29.562018
170.339735
-28.853120
175.075304
-28.163419
179.745236
-27.429109
184.288348
-26.670391
188.826606
-25.833142
193.259703
-25.087021
197.603261
201.878514
-24.273433
-23.390099
206.050734
-22.529890
210.037759
-21.711585
213.999582
-20.857196
217.732017
-19.936633
221.431184
-19.061404
225.060298
-18.239463
228.501068
-17.368920
231.715284
-16.579311
234.814553
-15.712613
237.748481
-14.837348
240.561802
-14.068403
243.252905
-13.240493
245.731821
-12.515361
248.016941
-11.726724
250.160772
-10.967010
252.176941
-10.235038
253.942094
-9.650008
-8.959784
255.580193
-8.327514
256.963102
-7.718281
258.221024
-7.183013
259.256628
-6.638863
260.075142
-6.121678
260.741259
-5.695139
261.272495
-5.264702
261.555750
-4.810470
261.648579
-4.536341
261.517043
-4.191422
261.226898
-3.914139
260.775068
-3.644110
260.058322
-3.439134
259.180928
-3.248575
258.160402
-3.132269
256.947119
-3.023889
255.497053
-2.981361
253.909060
-2.922716
252.135631
-2.912632
250.150707
-2.962543
248.116720
-3.069664
245.756083
-3.194121
243.366565
-3.329811
240.745245
-3.466055
237.886139
-3.687146
235.033207
-3.951640
232.018764
-4.206563
228.800613
-4.453523
225.474787
-4.813779
222.011355
-5.159567
218.408610
-5.547734
214.752429
-5.967600
210.892116
-6.372109
206.997044
-6.833571
203.010779
-7.249674
198.860423
-7.699684
194.713724
-8.223766
190.419192
-8.786908
186.078636
-9.296526
181.727073
-9.767857
177.206623
-10.324646
172.718768
-10.931372
168.190611
-11.453884
163.499434
-12.078383
158.899977
-12.628278
154.212862
-13.210101
149.516519
-13.776651
144.811298
-14.318292
140.160941
-14.955691
135.428142
-15.490368
130.725533
-16.121544
126.008582
-16.675599
121.381558
-17.231741
116.671045
-17.743243
112.060941
-18.306847
107.457827
-18.817274
102.924571
-19.367343
98.389217
-19.800949
93.881938
-20.292475
89.466013
-20.720444
85.076400
-21.121076
80.855987
-21.570645
76.589423
-21.962776
72.377055
-22.314195
68.312616
-22.599557
64.290964
-22.985026
60.342257
-23.234299
56.485417
-23.454882
52.722261
-23.673657
48.991715
-23.818016
45.371218
-23.918705
41.859796
-24.011496
38.424576
-24.040263
35.086477
-24.031927
31.869774
-23.967022
28.681678
-23.878778
25.693438
-23.745757
22.742866
-23.543141
19.862582
-23.259220
17.138018
-22.923272
14.494369
-22.535425
11.916382
-22.056053
9.474842
-21.604868
7.144280
-21.027093
4.836242
-20.341287
2.644949
-19.677379
0.587885
-18.886895
-1.356941
-18.015292
-3.232085
-17.114271
-5.006800
-16.083760
-6.704602
-15.006752
-8.326461
-13.807608
-9.828467
-12.545334
-11.224798
1.662732
-3.769943
4.547243
-6.341084
7.532015
-8.690443
10.590758
-10.979676
13.848872
-13.069717
17.149207
-15.202731
20.573789
-17.164947
24.172378
-18.974425
27.806316
-20.668370
31.559601
-22.312739
35.413594
-23.779147
39.349834
-25.167810
43.417512
-26.401126
47.542912
-27.571479
51.810032
-28.589549
56.077634
-29.565781
60.512296
-30.437249
64.872174
-31.144983
69.464429
-31.806271
74.019952
-32.317694
78.701214
-32.836493
83.398854
-33.206638
88.183606
-33.480392
92.961612
-33.682286
97.775799
-33.780232
102.691507
-33.847551
107.598359
-33.815042
112.486954
-33.677496
117.465621
-33.569224
122.403946
-33.299003
127.339887
-32.984643
132.327025
-32.654056
137.250571
-32.223927
142.128444
-31.840327
147.040188
-31.268068
151.895367
-30.699687
156.678185
-30.128958
161.491627
-29.522430
166.238418
-28.810358
170.867628
-28.134032
175.520227
-27.365236
180.016886
-26.617333
184.493770
-25.847572
188.786528
-25.113670
193.030918
-24.297645
197.254524
-23.410419
201.288356
-22.621017
205.251410
-21.758782
209.042383
-20.945537
212.760838
-20.110073
216.343562
-19.281422
219.757755
-18.441168
223.053969
-17.619238
226.208622
-16.781226
229.180084
-16.025847
232.019947
-15.207793
234.690448
-14.473282
237.213392
-13.660368
239.615470
-12.960700
241.686516
-12.255745
243.726716
-11.558526
245.482386
-10.863749
247.111156
-10.268340
248.525906
-9.631814
249.813325
-9.047108
250.883952
-8.547690
251.659438
-7.999423
252.395964
-7.569992
252.814007
-7.197060
253.128288
-6.706574
253.205299
-6.313543
253.073158
-5.991292
252.840544
-5.715124
252.351065
-5.442703
251.590355
-5.254858
250.726156
-5.049195
249.629950
-4.872813
248.391292
-4.755152
246.959749
-4.654018
245.297496
-4.695002
243.550875
-4.652743
241.580460
-4.696881
239.491090
-4.731854
237.064785
-4.857968
234.637302
-5.004624
231.993633
-5.120272
229.183317
-5.339802
226.221819
-5.584823
223.144577
-5.805212
219.914342
-6.072480
216.559168
-6.394546
213.044714
-6.742339
209.466054
-7.109716
205.759464
-7.486508
201.911685
-7.867123
197.969263
-8.321489
193.945262
-8.797081
189.852137
-9.250603
185.646753
-9.702733
181.315707
-10.275704
177.015535
-10.753864
172.570863
-11.233528
168.118149
-11.812011
163.621116
-12.353310
159.088416
-12.878019
154.477833
-13.470836
149.821025
-13.928681
145.211013
-14.572095
140.559665
-15.072609
135.860553
-15.631442
131.195529
-16.230774
126.561970
-16.807112
121.885069
-17.330961
117.322809
-17.867327
112.605092
-18.385089
108.000759
-18.910271
103.495958
-19.352200
98.957312
-19.842820
94.523740
-20.353364
90.036917
-20.801483
85.648544
-21.244899
81.414123
-21.650943
77.119710
-22.023668
72.903796
-22.425130
68.806830
-22.744128
64.726137
-23.013508
60.762120
-23.295324
56.859570
-23.535932
53.064224
-23.796494
49.292938
-23.991097
45.726298
-24.072953
42.143951
-24.158319
38.724489
-24.206772
35.342897
-24.177366
32.094170
-24.172624
28.887960
-24.049607
25.813526
-23.881624
22.842938
-23.706727
19.966314
-23.466958
17.153812
-23.101693
14.466857
-22.710668
11.921041
-22.263595
9.476225
-21.842004
7.099661
-21.209691
4.796112
-20.556015
2.630487
-19.876178
0.503138
-19.145266
-1.466890
-18.212383
-3.381154
-17.319274
-5.174320
-16.283816
-6.870779
-15.201636
-8.452560
-14.038153
-12.717118
-10.000752
-11.385470
0.543410
-2.732728
2.849043
-5.249738
5.708582
-7.715033
8.655733
-10.080857
11.842993
-12.294390
15.056040
-14.374304
18.283586
20.966510
-16.577844
24.492905
22.792951
-18.244788
28.222573
26.480839
-19.989488
30.104532
31.978899
-21.566901
34.000510
35.935790
-22.889471
39.857330
37.780451
-24.552534
41.839838
43.955581
-25.883434
48.374143
45.918727
-27.086533
51.378631
-28.213097
55.499095
-29.212993
59.827733
-30.230594
64.263081
-30.842315
68.781722
-31.575527
73.352572
-32.127770
77.820595
-32.648329
81.751635
-33.076399
87.533886
-33.400049
92.294637
-33.629193
-33.780315
97.094823
-33.862803
-33.786838
102.005707
-33.853039
-33.852857
106.901232
-33.819038
-33.891744
-33.803543
-33.707850
112.961283
-33.643601
-33.515576
117.485015
-33.413506
-33.256258
122.514503
-33.120223
-32.933583
127.592188
-32.658292
134.139310
-32.281135
142.598960
-31.834021
146.478235
-31.293945
150.420874
-30.753689
156.307867
-30.152581
161.140421
-29.605731
165.916015
-28.827088
171.472610
-28.128227
175.429754
-27.403837
179.841387
-26.497793
184.367550
-25.862910
188.865884
-25.251568
193.180165
197.240184
200.477266
-23.745059
204.559538
202.617448
-22.706359
208.765433
206.629716
-21.786054
210.578134
212.447573
-20.949999
214.269861
216.304677
-20.242209
217.880748
219.800713
-19.175055
221.480099
223.379312
-18.306849
224.799794
226.945436
-17.535138
229.092047
-16.680294
231.998987
-15.839746
234.816005
-14.861721
237.647961
-14.159493
240.202079
-13.496604
242.576695
-12.692356
244.734386
-11.986775
246.490811
-11.273620
248.797977
-10.631769
250.522508
-9.935774
-9.451971
252.026148
-9.201295
-8.832971
253.332250
-8.580229
-8.234526
254.540706
-7.961105
-7.710152
255.693058
-7.441428
-7.204381
256.250940
-6.697100
-6.970861
256.771920
-6.508129
-6.266477
257.177420
-5.845766
-6.116519
257.365097
-5.617076
257.372596
-5.235844
257.117057
-4.961001
256.753116
-4.689881
256.182949
-4.480152
255.391260
-4.291121
254.459383
-4.126339
253.036362
-3.923324
251.899001
-3.825041
250.439817
-3.790559
248.685420
-3.764046
246.788375
-3.787167
244.832766
-3.858135
242.766797
241.221761
-3.983923
239.501372
238.345037
-4.080509
236.831154
235.631723
-4.227186
232.894999
234.184036
-4.389323
231.379089
229.892049
-4.560983
226.898224
228.348657
-4.829468
225.059642
223.533879
-5.134195
220.077919
221.724179
-5.423797
217.436178
-5.778066
213.949553
-6.176094
210.186511
-6.581306
206.362055
-7.000687
202.489111
-7.365604
198.421528
-7.798519
194.460575
-8.290648
190.994835
-8.695300
185.905965
-9.230908
181.487724
-9.743068
-10.084655
177.095009
-10.422788
-10.654232
172.641622
-10.932103
-11.259970
168.156312
-11.471094
-11.775277
162.643379
-12.001119
-12.292205
158.823586
-12.644286
-12.894914
154.285269
-13.209715
-13.437437
149.672149
-13.762395
-14.007531
145.172179
-14.423408
141.347237
-15.018831
134.695717
-15.597332
130.958395
-16.164157
127.205241
-16.700332
121.616052
-17.232540
116.934680
-17.680200
112.389889
-18.356632
106.751412
-18.835432
103.011203
-19.357859
98.637830
-19.921351
94.218819
-20.397653
89.784285
-20.684108
85.453579
-21.272842
81.317165
-21.529861
78.297987
75.802689
-22.098819
73.925360
71.577390
-22.372612
69.555126
67.526117
-22.643674
65.552468
63.584695
-22.953816
61.560915
59.694148
-23.225638
57.522902
55.690356
-23.529332
53.743686
51.992862
-23.690225
49.917588
-23.864160
47.152005
-24.014607
43.701529
-24.061881
40.324158
-24.131329
36.901111
-24.089527
33.605597
-24.033382
30.398507
-23.920452
27.397269
-23.766423
24.828063
-23.544337
21.340736
-23.351141
18.515156
-23.118306
-22.924394
15.786053
-22.757409
-22.520869
13.151313
-22.277482
-22.080388
10.654886
-21.824018
-21.551931
7.760442
-20.976738
-21.270687
5.845222
-20.614980
-20.294351
3.684112
-19.559130
-19.888804
1.673907
-19.109951
-0.142383
-18.497909
-2.391997
-17.690029
-4.194567
-16.714428
-5.911867
-15.654508
-7.595653
-14.552609
-9.185507
-13.370981
-12.302427
-10.637577
SCALARS strain_2 float
LOOKUP_TABLE default
0.779158
0.512705
-0.390814
1.828784
-1.556563
2.856217
-2.892843
3.864387
-4.213650
4.672117
-5.659526
5.565976
-7.152811
6.302831
-8.717838
7.025235
-10.384421
7.702432
-12.077258
8.295361
-13.885217
8.816234
-15.718861
9.331948
-17.688002
9.737526
-19.665631
10.143353
-21.733671
10.553798
-23.851624
10.834644
-26.172645
11.017173
-28.423298
11.279610
-30.766100
11.459363
-33.183389
11.625338
-35.620369
11.707773
-38.169759
11.816995
-40.857817
11.865200
-43.508189
11.806522
-46.193061
11.792906
-48.967957
11.800888
-51.825527
11.655294
-54.659157
11.587572
-57.649947
11.485505
-60.655695
11.348666
-63.659746
11.172721
-66.695622
11.036399
-69.787656
-72.933267
10.840065
-76.078146
10.645418
-79.294445
10.422673
-82.471702
10.184617
-85.705508
9.922546
-88.887355
9.693220
-92.059094
9.401971
-95.329040
9.199796
-98.565162
8.909536
-101.779583
8.586944
-104.985807
8.333727
-108.137334
8.052261
-111.323297
7.778850
-114.435757
-117.537451
7.511114
7.184714
-120.618554
6.941312
-123.668647
6.685378
-126.643154
6.347664
-129.527315
6.056243
-132.459145
5.796586
-135.241208
5.474079
-138.009596
5.271456
-140.621128
4.987173