# vtk DataFile Version 2.0
Generated volume Mesh
ASCII
DATASET UNSTRUCTURED_GRID
POINTS 994 float
-0.416146 -0.294827 0.000000
-0.409251 -0.287252 0.000000
-0.421925 -0.286495 0.000000
-0.410201 -0.303043 0.000000
-0.427538 -0.278049 0.000000
-0.404095 -0.311138 0.000000
-0.432982 -0.269494 0.000000
-0.397829 -0.319111 0.000000
-0.438254 -0.260832 0.000000
-0.391406 -0.326958 0.000000
-0.443353 -0.252067 0.000000
-0.384828 -0.334675 0.000000
-0.448277 -0.243202 0.000000
-0.378098 -0.342260 0.000000
-0.453024 -0.234242 0.000000
-0.371218 -0.349710 0.000000
-0.457592 -0.225188 0.000000
-0.364192 -0.357021 0.000000
-0.461979 -0.216046 0.000000
-0.357021 -0.364192 0.000000
-0.466183 -0.206818 0.000000
-0.349710 -0.371218 0.000000
-0.470203 -0.197508 0.000000
-0.342260 -0.378098 0.000000
-0.474037 -0.188120 0.000000
-0.334675 -0.384828 0.000000
-0.477683 -0.178658 0.000000
-0.326958 -0.391406 0.000000
-0.481141 -0.169126 0.000000
-0.319111 -0.397829 0.000000
-0.484408 -0.159526 0.000000
-0.311138 -0.404095 0.000000
-0.487484 -0.149864 0.000000
-0.303043 -0.410201 0.000000
-0.490368 -0.140141 0.000000
-0.294827 -0.416146 0.000000
-0.493057 -0.130363 0.000000
-0.286495 -0.421925 0.000000
-0.495552 -0.120532 0.000000
-0.278049 -0.427538 0.000000
-0.497851 -0.110654 0.000000
-0.269494 -0.432982 0.000000
-0.499953 -0.100732 0.000000
-0.260832 -0.438254 0.000000
-0.501857 -0.090771 0.000000
-0.252067 -0.443353 0.000000
-0.503563 -0.080774 0.000000
-0.243202 -0.448277 0.000000
-0.505069 -0.070746 0.000000
-0.234242 -0.453024 0.000000
-0.506376 -0.060691 0.000000
-0.225188 -0.457592 0.000000
-0.507482 -0.050612 0.000000
-0.216046 -0.461979 0.000000
-0.508388 -0.040514 0.000000
-0.206818 -0.466183 0.000000
-0.509093 -0.030400 0.000000
-0.197508 -0.470203 0.000000
-0.509597 -0.020274 0.000000
-0.188120 -0.474037 0.000000
-0.509899 -0.010139 0.000000
-0.178658 -0.477683 0.000000
-0.510000 0.000000 0.000000
-0.169126 -0.481141 0.000000
-0.509899 0.010139 0.000000
-0.509597 0.020274 0.000000
-0.159526 -0.484408 0.000000
-0.509093 0.030400 0.000000
-0.149864 -0.487484 0.000000
-0.508388 0.040514 0.000000
-0.140141 -0.490368 0.000000
-0.507482 0.050612 0.000000
-0.130363 -0.493057 0.000000
-0.506376 0.060691 0.000000
-0.120532 -0.495552 0.000000
-0.505069 0.070746 0.000000
-0.110654 -0.497851 0.000000
-0.503563 0.080774 0.000000
-0.100732 -0.499953 0.000000
-0.501857 0.090771 0.000000
-0.090771 -0.501857 0.000000
-0.499953 0.100732 0.000000
-0.080774 -0.503563 0.000000
-0.497851 0.110654 0.000000
-0.070746 -0.505069 0.000000
-0.495552 0.120532 0.000000
-0.060691 -0.506376 0.000000
-0.493057 0.130363 0.000000
-0.050612 -0.507482 0.000000
-0.490368 0.140141 0.000000
-0.040514 -0.508388 0.000000
-0.487484 0.149864 0.000000
-0.484408 0.159526 0.000000
-0.030400 -0.509093 0.000000
-0.020274 -0.509597 0.000000
-0.481141 0.169126 0.000000
-0.010139 -0.509899 0.000000
-0.477683 0.178658 0.000000
0.000000 -0.510000 0.000000
-0.474037 0.188120 0.000000
0.010139 -0.509899 0.000000
-0.470203 0.197508 0.000000
0.020274 -0.509597 0.000000
-0.466183 0.206818 0.000000
0.030400 -0.509093 0.000000
-0.461979 0.216046 0.000000
0.040514 -0.508388 0.000000
-0.457592 0.225188 0.000000
0.050612 -0.507482 0.000000
-0.453024 0.234242 0.000000
0.060691 -0.506376 0.000000
-0.448277 0.243202 0.000000
0.070746 -0.505069 0.000000
-0.443353 0.252067 0.000000
0.080774 -0.503563 0.000000
-0.438254 0.260832 0.000000
0.090771 -0.501857 0.000000
-0.432982 0.269494 0.000000
0.100732 -0.499953 0.000000
-0.427538 0.278049 0.000000
0.110654 -0.497851 0.000000
-0.421925 0.286495 0.000000
0.120532 -0.495552 0.000000
-0.416146 0.294827 0.000000
0.130363 -0.493057 0.000000
-0.410201 0.303043 0.000000
0.140141 -0.490368 0.000000
-0.404095 0.311138 0.000000
0.149864 -0.487484 0.000000
0.159526 -0.484408 0.000000
-0.397829 0.319111 0.000000
0.169126 -0.481141 0.000000
-0.391406 0.326958 0.000000
0.178658 -0.477683 0.000000
-0.384828 0.334675 0.000000
0.188120 -0.474037 0.000000
-0.378098 0.342260 0.000000
0.197508 -0.470203 0.000000
-0.371218 0.349710 0.000000
0.206818 -0.466183 0.000000
-0.364192 0.357021 0.000000
0.216046 -0.461979 0.000000
-0.357021 0.364192 0.000000
0.225188 -0.457592 0.000000
-0.349710 0.371218 0.000000
0.234242 -0.453024 0.000000
-0.342260 0.378098 0.000000
0.243202 -0.448277 0.000000
-0.334675 0.384828 0.000000
0.252067 -0.443353 0.000000
-0.326958 0.391406 0.000000
0.260832 -0.438254 0.000000
-0.319111 0.397829 0.000000
0.269494 -0.432982 0.000000
-0.311138 0.404095 0.000000
0.278049 -0.427538 0.000000
-0.303043 0.410201 0.000000
0.286495 -0.421925 0.000000
-0.294827 0.416146 0.000000
0.294827 -0.416146 0.000000
-0.286495 0.421925 0.000000
0.303043 -0.410201 0.000000
-0.278049 0.427538 0.000000
0.311138 -0.404095 0.000000
-0.269494 0.432982 0.000000
0.319111 -0.397829 0.000000
-0.260832 0.438254 0.000000
0.326958 -0.391406 0.000000
-0.252067 0.443353 0.000000
0.334675 -0.384828 0.000000
-0.243202 0.448277 0.000000
0.342260 -0.378098 0.000000
-0.234242 0.453024 0.000000
0.349710 -0.371218 0.000000
-0.225188 0.457592 0.000000
0.357021 -0.364192 0.000000
-0.216046 0.461979 0.000000
0.364192 -0.357021 0.000000
-0.206818 0.466183 0.000000
0.371218 -0.349710 0.000000
-0.197508 0.470203 0.000000
0.378098 -0.342260 0.000000
-0.188120 0.474037 0.000000
0.384828 -0.334675 0.000000
-0.178658 0.477683 0.000000
0.391406 -0.326958 0.000000
-0.169126 0.481141 0.000000
0.397829 -0.319111 0.000000
-0.159526 0.484408 0.000000
0.404095 -0.311138 0.000000
-0.149864 0.487484 0.000000
0.410201 -0.303043 0.000000
-0.140141 0.490368 0.000000
0.416146 -0.294827 0.000000
-0.130363 0.493057 0.000000
0.421925 -0.286495 0.000000
-0.120532 0.495552 0.000000
0.427538 -0.278049 0.000000
-0.110654 0.497851 0.000000
0.432982 -0.269494 0.000000
-0.100732 0.499953 0.000000
0.438254 -0.260832 0.000000
-0.090771 0.501857 0.000000
0.443353 -0.252067 0.000000
-0.080774 0.503563 0.000000
0.448277 -0.243202 0.000000
-0.070746 0.505069 0.000000
0.453024 -0.234242 0.000000
-0.060691 0.506376 0.000000
0.457592 -0.225188 0.000000
-0.050612 0.507482 0.000000
0.461979 -0.216046 0.000000
-0.040514 0.508388 0.000000
0.466183 -0.206818 0.000000
-0.030400 0.509093 0.000000
0.470203 -0.197508 0.000000
-0.020274 0.509597 0.000000
0.474037 -0.188120 0.000000
-0.010139 0.509899 0.000000
0.477683 -0.178658 0.000000
0.000000 0.510000 0.000000
0.481141 -0.169126 0.000000
0.010139 0.509899 0.000000
0.484408 -0.159526 0.000000
0.020274 0.509597 0.000000
0.487484 -0.149864 0.000000
0.030400 0.509093 0.000000
0.490368 -0.140141 0.000000
0.040514 0.508388 0.000000
0.493057 -0.130363 0.000000
0.050612 0.507482 0.000000
0.495552 -0.120532 0.000000
0.060691 0.506376 0.000000
0.497851 -0.110654 0.000000
0.070746 0.505069 0.000000
0.499953 -0.100732 0.000000
0.080774 0.503563 0.000000
0.501857 -0.090771 0.000000
0.090771 0.501857 0.000000
0.503563 -0.080774 0.000000
0.100732 0.499953 0.000000
0.505069 -0.070746 0.000000
0.110654 0.497851 0.000000
0.506376 -0.060691 0.000000
0.120532 0.495552 0.000000
0.507482 -0.050612 0.000000
0.130363 0.493057 0.000000
0.508388 -0.040514 0.000000
0.140141 0.490368 0.000000
0.509093 -0.030400 0.000000
0.149864 0.487484 0.000000
0.509597 -0.020274 0.000000
0.159526 0.484408 0.000000
0.509899 -0.010139 0.000000
0.169126 0.481141 0.000000
0.510000 0.000000 0.000000
0.178658 0.477683 0.000000
0.509899 0.010139 0.000000
0.188120 0.474037 0.000000
0.509597 0.020274 0.000000
0.197508 0.470203 0.000000
0.509093 0.030400 0.000000
0.206818 0.466183 0.000000
0.508388 0.040514 0.000000
0.216046 0.461979 0.000000
0.507482 0.050612 0.000000
0.225188 0.457592 0.000000
0.506376 0.060691 0.000000
0.234242 0.453024 0.000000
0.505069 0.070746 0.000000
0.243202 0.448277 0.000000
0.503563 0.080774 0.000000
0.252067 0.443353 0.000000
0.501857 0.090771 0.000000
0.260832 0.438254 0.000000
0.499953 0.100732 0.000000
0.269494 0.432982 0.000000
0.497851 0.110654 0.000000
0.278049 0.427538 0.000000
0.495552 0.120532 0.000000
0.286495 0.421925 0.000000
0.493057 0.130363 0.000000
0.294827 0.416146 0.000000
0.490368 0.140141 0.000000
0.303043 0.410201 0.000000
0.487484 0.149864 0.000000
0.311138 0.404095 0.000000
0.484408 0.159526 0.000000
0.319111 0.397829 0.000000
0.481141 0.169126 0.000000
0.326958 0.391406 0.000000
0.477683 0.178658 0.000000
0.334675 0.384828 0.000000
0.474037 0.188120 0.000000
0.342260 0.378098 0.000000
0.470203 0.197508 0.000000
0.349710 0.371218 0.000000
0.466183 0.206818 0.000000
0.357021 0.364192 0.000000
0.461979 0.216046 0.000000
0.364192 0.357021 0.000000
0.457592 0.225188 0.000000
0.371218 0.349710 0.000000
0.453024 0.234242 0.000000
0.378098 0.342260 0.000000
0.448277 0.243202 0.000000
0.384828 0.334675 0.000000
0.443353 0.252067 0.000000
0.391406 0.326958 0.000000
0.438254 0.260832 0.000000
0.397829 0.319111 0.000000
0.432982 0.269494 0.000000
0.404095 0.311138 0.000000
0.427538 0.278049 0.000000
0.410201 0.303043 0.000000
0.421925 0.286495 0.000000
0.416146 0.294827 0.000000
-0.415025 -0.278844 0.000000
-0.403306 -0.295541 0.000000
-0.420627 -0.270320 0.000000
-0.397194 -0.303706 0.000000
-0.426054 -0.261684 0.000000
-0.390916 -0.311745 0.000000
-0.431303 -0.252938 0.000000
-0.384475 -0.319654 0.000000
-0.436373 -0.244088 0.000000
-0.377875 -0.327430 0.000000
-0.441261 -0.235136 0.000000
-0.371117 -0.335070 0.000000
-0.445965 -0.226086 0.000000
-0.364205 -0.342571 0.000000
-0.450484 -0.216942 0.000000
-0.357141 -0.349929 0.000000
-0.454816 -0.207707 0.000000
-0.349929 -0.357141 0.000000
-0.458958 -0.198386 0.000000
-0.342571 -0.364205 0.000000
-0.462910 -0.188983 0.000000
-0.335070 -0.371117 0.000000
-0.466668 -0.179501 0.000000
-0.327430 -0.377875 0.000000
-0.470233 -0.169944 0.000000
-0.319654 -0.384475 0.000000
-0.473602 -0.160317 0.000000
-0.311745 -0.390916 0.000000
-0.476773 -0.150623 0.000000
-0.303706 -0.397194 0.000000
-0.479747 -0.140866 0.000000
-0.295541 -0.403306 0.000000
-0.482520 -0.131050 0.000000
-0.287252 -0.409251 0.000000
-0.485094 -0.121178 0.000000
[...]
POINT_DATA 994
SCALARS u1 float
LOOKUP_TABLE default
-0.2
-0.2
-0.2
-0.2
-0.3
-0.2
-0.3
-0.1
-0.3
-0.1
-0.4
-0.1
-0.4
-0.1
-0.4
-0.09
-0.5
-0.08
-0.5
-0.08
-0.6
-0.08
-0.6
-0.08
-0.7
-0.08
-0.7
-0.09
-0.8
-0.1
-0.9
-0.1
-0.9
-0.1
-1
-0.1
-1
-0.1
-1
-0.1
-1
-0.2
-1
-0.2
-1
-0.2
-1
-0.2
-1
-0.2
-1
-0.2
-2
-0.2
-2
-0.3
-2
-0.3
-2
-0.3
-2
-0.3
-2
-0.3
-2
-2
-0.3
-2
-0.4
-2
-0.4
-2
-0.4
-2
-0.4
-2
-0.4
-1
-0.4
-1
-0.4
-1
-0.4
-1
-0.4
-1
-0.4
-1
-0.4
-1
-0.4
-1
-1
-0.4
-0.4
-1
-0.4
-0.9
-0.4
-0.9
-0.4
-0.8
-0.4
-0.8
-0.4
-0.8
-0.4
-0.7
-0.4
-0.7
-0.4
-0.7
-0.4
-0.6
-0.4
-0.6
-0.4
-0.6
-0.4
-0.6
-0.4
-0.6
-0.4
-0.6
-0.5
-0.5
-0.5
-0.5
-0.5
-0.5
-0.5
-0.5
-0.5
-0.6
-0.5
-0.6
-0.5
-0.6
-0.5
-0.6
-0.5
-0.7
-0.5
-0.7
-0.5
-0.7
-0.5
-0.7
-0.5
-0.7
-0.6
-0.8
-0.6
-0.8
-0.6
-0.8
-0.6
-0.8
-0.6
-0.8
-0.6
-0.8
-0.7
-0.9
-0.7
-0.9
-0.7
-0.9
-0.7
-0.9
-0.7
-0.9
-0.7
-0.9
-0.8
-0.9
-0.8
-0.9
-0.8
-0.9
-0.8
-0.9
-0.9
-0.9
-0.9
-0.9
-0.9
-0.9
-0.9
-0.9
-1
-0.9
-1
-0.9
-1
-0.9
-1
-0.8
-1
-0.8
-1
-0.8
-1
-0.8
-1
-0.8
-1
-0.7
-1
-0.7
-1
-0.7
-1
-0.6
-1
-0.6
-1
-0.5
-1
-0.5
-1
-0.4
-1
-0.4
-1
-0.3
-1
-0.3
-1
-0.2
-1
-0.1
-1
-0.09
-1
-0.04
-1
0.01
-1
0.06
-1
0.1
-1
0.1
-1
0.2
-1
0.2
-1
0.2
-1
0.3
-1
0.3
-1
0.3
-1
0.3
-1
0.2
-1
0.2
-1
0.2
-1
0.1
-1
0.07
-1
0.02
-1
-0.04
-1
-0.1
-1
-0.2
-1
-0.2
-1
-0.3
-1
-0.4
-1
-0.4
-1
-0.5
-1
-0.6
-1
-0.7
-1
-0.7
-1
-0.8
-1
-0.8
-1
-0.9
-1
-0.9
-1
-1
-1
-1
-1
-1
-1
-1
-1
-1
-1
-1
-1
-1
-1
-1
-1
-0.3
-0.2
-0.3
-0.2
-0.3
-0.2
-0.4
-0.1
-0.4
-0.1
-0.4
-0.1
-0.5
-0.1
-0.5
-0.09
-0.6
-0.08
-0.6
-0.08
-0.7
-0.08
-0.7
-0.08
-0.8
-0.08
-0.9
-0.09
-0.9
-0.1
-1
-0.1
-1
-0.1
-1
-0.1
-1
-0.1
-1
-0.1
-1
-0.1
-1
-0.2
-1
-0.2
-1
-0.2
-2
-0.2
-2
-0.2
-2
-0.2
-2
-0.2
-2
-0.3
-2
-0.3
-2
-0.3
-2
-0.3
-2
-0.3
-2
-0.3
-2
-0.3
-2
-0.4
-2
-0.4
-1
-0.4
-1
-0.4
-1
-0.4
-1
-0.4
-1
-0.4
-1
-0.4
-1
-0.4
-1
-0.4
-1
-0.4
-1
-0.4
-0.9
-0.4
-0.9
-0.4
-0.8
-0.4
-0.8
-0.4
-0.8
-0.4
-0.7
-0.4
-0.7
-0.5
-0.7
-0.5
-0.6
-0.5
-0.6
-0.5
-0.6
-0.5
-0.6
-0.5
-0.6
-0.5
-0.6
-0.6
-0.5
-0.6
-0.5
-0.6
-0.5
-0.6
-0.5
-0.6
-0.5
-0.7
-0.5
-0.7
-0.5
-0.7
-0.5
-0.7
-0.5
-0.7
-0.5
-0.8
-0.5
-0.8
-0.5
-0.8
-0.6
-0.8
-0.6
-0.8
-0.6
-0.8
-0.6
-0.8
-0.6
-0.9
-0.6
-0.9
-0.6
-0.9
-0.7
-0.9
-0.7
-0.9
-0.7
-0.9
-0.7
-0.9
-0.7
-0.9
-0.8
-0.9
-0.8
-0.9
-0.8
-0.9
-0.8
-0.9
-0.8
-0.9
-0.9
-0.9
-0.9
-0.9
-0.9
-0.9
-0.9
-0.9
-0.9
-0.8
-1
-0.8
-1
-0.8
-1
-0.8
-1
-0.8
-1
-0.7
-1
-0.7
-1
-0.7
-1
-0.6
-1
-0.6
-1
-0.5
-1
-0.5
-1
-0.4
-1
-0.4
-1
-0.3
-1
-0.3
-1
-0.2
-1
-0.2
-1
-0.1
-1
-0.04
-1
0.01
-1
0.06
-1
0.1
-1
0.1
-1
0.2
-1
0.2
-1
0.2
-1
0.3
-1
0.3
-1
0.3
-1
0.3
-1
0.2
-1
0.2
-1
0.2
-1
0.1
-1
0.07
-1
0.02
-1
-0.04
-1
-0.1
-1
-0.2
-1
-0.2
-1
-0.3
-1
-0.4
-1
-0.5
-1
-0.5
-1
-0.6
-1
-0.7
-1
-0.7
-1
-0.8
-1
-0.8
-1
-0.9
-1
-0.9
-1
-1
-1
-1
-1
-1
-1
-1
-1
-1
-1
-1
-1
-1
-1
-0.2
-0.2
-0.3
-0.2
-0.3
-0.2
-0.3
-0.1
-0.4
-0.1
-0.4
-0.1
-0.4
-0.5
-0.1
-0.5
-0.5
-0.09
-0.6
-0.5
-0.08
-0.6
-0.6
-0.08
-0.6
-0.7
-0.08
-0.7
-0.7
-0.08
-0.8
-0.8
-0.08
-0.9
-0.8
-0.09
-0.9
-0.1
-1
-0.1
-1
-0.1
-1
-0.1
-1
-0.1
-1
-0.1
-1
-0.1
-1
-0.2
-1
-0.2
-1
-0.2
-0.2
-2
-0.2
-0.2
-2
-0.2
-0.2
-2
-0.2
-0.2
-0.2
-0.3
-2
-0.3
-0.3
-2
-0.3
-0.3
-2
-0.3
-0.3
-2
-0.3
-2
-0.3
-2
-0.4
-2
-0.4
-2
-0.4
-2
-0.4
-1
-0.4
-1
-0.4
-1
-0.4
-1
-0.4
-1
-0.4
-1
-0.4
-1
-0.4
-1
-1
-1
-0.4
-1
-1
-0.4
-0.9
-0.9
-0.4
-0.9
-0.9
-0.4
-0.9
-0.8
-0.4
-0.8
-0.8
-0.4
-0.8
-0.8
-0.4
-0.7
-0.7
-0.4
-0.7
-0.4
-0.7
-0.4
-0.6
-0.4
-0.6
-0.4
-0.6
-0.5
-0.6
-0.5
-0.6
-0.5
-0.6
-0.5
-0.5
-0.5
-0.5
-0.5
-0.6
-0.5
-0.6
-0.6
-0.5
-0.6
-0.6
-0.5
-0.6
-0.6
-0.5
-0.6
-0.6
-0.5
-0.7
-0.7
-0.5
-0.7
-0.7
-0.5
-0.7
-0.7
-0.5
-0.7
-0.5
-0.7
-0.5
-0.8
-0.6
-0.8
-0.6
-0.8
-0.6
-0.8
-0.6
-0.8
-0.6
-0.8
-0.6
-0.9
-0.6
-0.9
-0.7
-0.9
-0.7
-0.9
-0.7
-0.9
-0.7
-0.7
-0.9
-0.7
-0.8
-0.9
-0.8
-0.8
-0.9
-0.8
-0.8
-0.9
-0.8
-0.8
-0.9
-0.8
-0.8
-0.9
-0.9
-0.9
-0.9
-0.9
-0.9
-0.9
-0.9
-0.9
-0.9
-0.9
-0.9
-0.9
-1
-0.9
-1
-0.8
-1
-0.8
-1
-0.8
-1
-0.8
-1
-0.8
-1
-0.7
-0.7
-1
-0.7
-0.7
-1
-0.7
-0.6
-1
-0.6
-0.6
-1
-0.6
-0.6
-1
-0.5
-0.5
-1
-0.5
-0.4
-1
-0.4
-0.4
-1
-0.3
-1
-0.3
-1
-0.2
-1
-0.2
-1
-0.1
-1
-0.07
-1
-0.02
-1
0.04
-1
0.09
-1
0.1
-1
0.2
-1
0.2
-1
0.2
-1
0.3
-1
0.3
-1
-1
0.3
-1
-1
0.3
-1
-1
0.2
-1
-1
0.2
-1
-1
0.2
-1
-1
0.1
-1
-1
0.1
-1
0.04
-1
-0.01
-1
-0.09
-1
-0.1
-1
-0.2
-1
-0.3
-1
-0.3
-1
-0.4
-1
-0.5
-1
-0.6
-1
-0.6
-0.6
-1
-0.7
-0.7
-1
-0.7
-0.8
-1
-0.8
-0.8
-1
-0.9
-0.9
-1
-0.9
-0.9
-1
-1
-1
-1
-1
-1
-1
-1
-1
-1
-1
-1
-1
-1
-1
-1
-1
-1
-1
SCALARS u2 float
LOOKUP_TABLE default
-0.6
-0.6
-0.6
-0.6
-0.6
-0.6
-0.7
-0.6
-0.7
-0.6
-0.7
-0.5
-0.7
-0.5
-0.7
-0.5
-0.8
-0.5
-0.8
-0.5
-0.8
-0.5
-0.8
-0.5
-0.9
-0.5
-0.9
-0.5
-0.9
-0.5
-0.9
-0.5
-0.9
-0.5
-1
-0.6
-1
-0.6
-1
-0.6
-1
-0.6
-1
-0.6
-1
-0.6
-1
-0.7
-1
-0.7
-1
-0.7
-1
-0.8
-1
-0.8
-1
-0.8
-1
-0.9
-1
-0.9
-1
-1
-1
-1
-1
-1
-1
-1
-1
-1
-1
-1
-1
-1
-1
-1
-1
-1
-1
-1
-1
-1
-1
-1
-2
-1
-2
-1
-2
-1
-1
-2
-2
-1
-2
-1
-2
-1
-2
-1
-2
-1
-2
-1
-2
-1
-2
-1
-1
-1
-1
-1
-1
-1
-1
-1
-1
-1
-1
-1
-1
-1
-1
-1
-1
-1
-0.9
-0.8
-1
-0.8
-1
-0.7
-1
-0.6
-1
-0.6
-1
-0.5
-1
-0.5
-1
-0.4
-1
-0.4
-1
-0.4
-1
-0.3
-1
-0.3
-1
-0.3
-1
-0.2
-1
-0.2
-1
-0.2
-1
-0.2
-1
-0.1
-1
-0.1
-1
-0.09
-1
-0.08
-1
-0.06
-1
-0.05
-1
-0.04
-0.9
-0.04
-0.9
-0.04
-0.8
-0.04
-0.8
-0.05
-0.7
-0.06
-0.6
-0.06
-0.6
-0.07
-0.5
-0.08
-0.4
-0.09
-0.4
-0.1
-0.3
-0.1
-0.2
-0.1
-0.2
-0.1
-0.09
-0.1
-0.03
-0.2
0.03
-0.2
0.08
-0.2
0.1
-0.2
0.2
-0.2
0.2
-0.2
0.2
-0.3
0.3
-0.3
0.3
-0.3
0.3
-0.3
0.3
-0.3
0.2
-0.4
0.2
-0.4
0.2
-0.4
0.1
-0.4
0.1
-0.4
0.06
-0.4
0.009
-0.4
-0.04
-0.4
-0.1
-0.4
-0.2
-0.4
-0.2
-0.4
-0.3
-0.4
-0.3
-0.4
-0.4
-0.4
-0.4
-0.4
-0.5
-0.4
-0.5
-0.4
-0.6
-0.4
-0.6
-0.4
-0.7
-0.4
-0.7
-0.4
-0.7
-0.4
-0.8
-0.4
-0.8
-0.4
-0.8
-0.4
-0.8
-0.4
-0.9
-0.4
-0.9
-0.5
-0.9
-0.5
-0.9
-0.5
-0.9
-0.5
-0.9
-0.5
-0.9
-0.6
-0.9
-0.6
-1
-0.6
-1
-0.6
-0.9
-0.7
-0.9
-0.7
-0.9
-0.7
-0.9
-0.7
-0.9
-0.7
-0.9
-0.8
-0.9
-0.8
-0.9
-0.8
-0.8
-0.8
-0.8
-0.6
-0.6
-0.6
-0.6
-0.6
-0.5
-0.7
-0.5
-0.7
-0.5
-0.7
-0.5
-0.7
-0.5
-0.7
-0.5
-0.7
-0.5
-0.8
-0.5
-0.8
-0.5
-0.8
-0.5
-0.8
-0.5
-0.9
-0.5
-0.9
-0.5
-0.9
-0.6
-0.9
-0.6
-0.9
-0.6
-0.9
-0.6
-1
-0.6
-1
-0.6
-1
-0.7
-1
-0.7
-1
-0.7
-1
-0.8
-1
-0.8
-1
-0.8
-1
-0.9
-1
-0.9
-1
-1
-1
-1
-1
-1
-1
-1
-1
-1
-1
-1
-1
-1
-1
-1
-1
-1
-1
-1
-1
-1
-1
-2
-1
-2
-1
-2
-1
-2
-1
-2
-1
-2
-1
-2
-1
-2
-1
-2
-1
-2
-1
-2
-1
-2
-1
-1
-1
-1
-1
-1
-1
-1
-1
-1
-1
-1
-1
-1
-1
-1
-1
-1
-1
-0.9
-1
-0.8
-1
-0.8
-1
-0.7
-1
-0.6
-1
-0.6
-1
-0.5
-1
-0.5
-1
-0.4
-1
-0.4
-1
-0.4
-1
-0.3
-1
-0.3
-1
-0.3
-1
-0.2
-1
-0.2
-1
-0.2
-1
-0.2
-1
-0.1
-1
-0.1
-1
-0.09
-1
-0.07
-1
-0.06
-0.9
-0.05
-0.9
-0.04
-0.8
-0.04
-0.8
-0.04
-0.7
-0.04
-0.6
-0.05
-0.6
-0.05
-0.5
-0.06
-0.4
-0.07
-0.4
-0.08
-0.3
-0.09
-0.2
-0.1
-0.2
-0.1
-0.09
-0.1
-0.03
-0.1
0.02
-0.1
0.08
-0.2
0.1
-0.2
0.2
-0.2
0.2
-0.2
0.2
-0.2
0.3
-0.2
0.3
-0.2
0.3
-0.3
0.3
-0.3
0.2
-0.3
0.2
-0.3
0.2
-0.3
0.1
-0.3
0.1
-0.4
0.06
-0.4
0.007
-0.4
-0.05
-0.4
-0.1
-0.4
-0.2
-0.4
-0.2
-0.4
-0.3
-0.4
-0.3
-0.4
-0.4
-0.4
-0.4
-0.4
-0.5
-0.4
-0.5
-0.4
-0.6
-0.4
-0.6
-0.4
-0.7
-0.4
-0.7
-0.4
-0.7
-0.4
-0.8
-0.5
-0.8
-0.5
-0.8
-0.5
-0.8
-0.5
-0.9
-0.5
-0.9
-0.5
-0.9
-0.5
-0.9
-0.6
-0.9
-0.6
-0.9
-0.6
-0.9
-0.6
-0.9
-0.7
-1
-0.7
-1
-0.7
-1
-0.7
-0.9
-0.7
-0.9
-0.8
-0.9
-0.8
-0.9
-0.8
-0.9
-0.8
-0.9
-0.8
-0.8
-0.9
-0.9
-0.6
-0.6
-0.6
-0.6
-0.6
-0.6
-0.7
-0.6
-0.7
-0.5
-0.7
-0.5
-0.7
-0.7
-0.5
-0.8
-0.7
-0.5
-0.8
-0.8
-0.5
-0.8
-0.8
-0.5
-0.8
-0.8
-0.5
-0.8
-0.8
-0.5
-0.8
-0.9
-0.5
-0.9
-0.9
-0.5
-0.9
-0.5
-0.9
-0.5
-0.9
-0.6
-1
-0.6
-1
-0.6
-1
-0.6
-1
-0.6
-1
-0.6
-1
-0.7
-1
-0.7
-0.7
-1
-0.7
-0.7
-1
-0.8
-0.8
-1
-0.8
-0.8
-0.8
-0.9
-1
-0.9
-0.9
-1
-0.9
-1
-1
-1
-1
-1
-1
-1
-1
-1
-1
-1
-1
-1
-1
-1
-1
-1
-1
-1
-1
-1
-1
-1
-2
-1
-2
-1
-2
-1
-2
-1
-1
-1
-2
-1
-1
-2
-1
-1
-2
-1
-1
-2
-1
-1
-2
-1
-1
-2
-1
-1
-2
-1
-1
-1
-1
-1
-1
-1
-1
-1
-1
-1
-1
-1
-1
-1
-1
-1
-1
-1
-1
-0.9
-1
-0.9
-0.8
-1
-0.8
-0.7
-1
-0.7
-0.7
-1
-0.7
-0.6
-1
-0.6
-0.6
-1
-0.5
-0.5
-1
-0.5
-0.5
-1
-0.4
-0.4
-1
-0.4
-1
-0.4
-1
-0.3
-1
-0.3
-1
-0.3
-1
-0.2
-1
-0.2
-1
-0.2
-1
-0.2
-1
-0.1
-1
-0.1
-1
-0.09
-1
-0.07
-1
-1
-0.06
-1
-0.9
-0.05
-0.9
-0.9
-0.04
-0.8
-0.9
-0.04
-0.8
-0.8
-0.04
-0.7
-0.7
-0.04
-0.7
-0.7
-0.05
-0.6
-0.6
-0.06
-0.5
-0.06
-0.5
-0.07
-0.4
-0.08
-0.3
-0.09
-0.3
-0.1
-0.2
-0.1
-0.1
-0.1
-0.08
-0.1
-0.003
-0.1
0.05
-0.2
-0.2
0.1
-0.2
-0.2
0.2
-0.2
-0.2
0.2
-0.2
-0.2
0.2
-0.2
-0.2
0.3
-0.2
-0.3
0.3
-0.3
-0.3
0.3
-0.3
-0.3
0.3
-0.3
0.3
-0.3
0.2
-0.3
0.2
-0.3
0.2
-0.4
0.1
-0.4
0.08
-0.4
0.03
-0.4
-0.03
-0.4
-0.07
-0.4
-0.1
-0.4
-0.2
-0.4
-0.2
-0.4
-0.3
-0.4
-0.4
-0.4
-0.4
-0.4
-0.4
-0.5
-0.5
-0.4
-0.5
-0.5
-0.4
-0.6
-0.6
-0.4
-0.6
-0.6
-0.4
-0.6
-0.7
-0.4
-0.7
-0.7
-0.4
-0.7
-0.4
-0.7
-0.4
-0.8
-0.4
-0.8
-0.4
-0.8
-0.5
-0.8
-0.5
-0.9
-0.5
-0.9
-0.5
-0.9
-0.5
-0.9
-0.5
-0.9
-0.6
-0.6
-0.9
-0.6
-0.6
-0.9
-0.6
-0.6
-0.9
-0.6
-0.6
-1
-0.7
-0.6
-1
-0.7
-0.7
-0.9
-0.7
-0.7
-0.9
-0.7
-0.9
-0.7
-0.9
-0.7
-0.9
-0.8
-0.9
-0.8
-0.9
-0.8
-0.9
-0.8
-0.8
-0.9
SCALARS strain_1 float
LOOKUP_TABLE default
-1.375377
-0.882013
0.879797
-3.499999
3.191758
-5.520023
5.587862
-7.472087
8.086239
-9.309345
10.701500
-11.068413
13.365788
-12.683438
16.126933
-14.298476
18.998654
-15.726089
21.953080
-17.129378
24.964853
-18.392697
28.066649
-19.607860
31.229168
-20.696803
34.498304
-21.717695
37.842249
-22.640765
41.293781
-23.512496
44.756604
-24.265097
48.280538
-24.968407
51.899268
-25.574651
55.584895
-26.110264
59.247535
-26.538736
63.042930
-26.897190
66.890460
-27.176464
70.728061
-27.448397
74.658249
-27.588610
78.576429
-27.726004
82.591502
-27.727932
86.571999
-27.719424
90.590167
-27.632723
94.607849
-27.481599
98.663600
-27.311069
102.723120
-27.068042
106.786372
110.804912
-26.759858
114.882691
-26.411127
118.911712
-26.032119
122.906065
-25.633722
126.923772
-25.190139
130.840264
-24.681027
134.796537
-24.154806
138.679273
-23.622365
142.510779
-23.019840
146.291490
-22.401070
150.017869
-21.804291
153.691295
-21.158279
157.323314
-20.485675
160.804063
164.252965
-19.807559
-19.127967
167.624072
-18.443075
170.914837
-17.744765
174.067510
-17.033151
177.154774
-16.357211
180.129129
-15.600881
183.023155
-14.864375
185.800127
-14.242552
188.463363
-13.535332
190.960445
-12.852239
193.373809
-12.163620
195.640802
-11.502794
197.814528
-10.852871
199.801622
-10.218832
201.670798
-9.614044
203.408686
-8.986864
204.988395
-8.421022
206.474126
-7.876527
-7.344353
207.712508
-6.800624
208.903079
-6.303155
209.879688
-5.872085
210.728626
-5.425513
211.427314
-5.035872
211.953089
-4.627158
212.340568
-4.300106
212.543112
-3.977180
212.624148
-3.651777
212.532204
-3.409903
212.260798
-3.188768
211.898190
-2.963118
211.329468
-2.790229
210.618900
-2.654107
209.757647
-2.496376
208.742038
-2.466516
207.584703
-2.419760
206.287865
-2.390825
204.822110
-2.406753
203.240509
-2.422788
201.503380
-2.481530
199.667650
-2.588482
197.678076
-2.692090
195.525636
-2.850509
193.272241
-3.000027
190.918229
-3.218820
188.425348
-3.451913
185.849094
-3.687219
183.119512
-3.906315
180.331210
-4.235316
177.377056
-4.536206
174.394695
-4.870560
171.323330
-5.198102
168.106271
-5.558906
164.874634
-5.961460
161.531622
-6.294570
158.133206
-6.747304
154.641200
-7.129350
151.116927
-7.570256
147.543673
-8.038368
143.929115
-8.475263
140.256505
-8.924499
136.523773
-9.383737
132.826978
-9.819423
129.064441
-10.344485
125.262872
-10.792000
121.454346
-11.263178
117.641191
-11.755682
113.816388
-12.241243
109.997434
-12.681977
106.184198
-13.115973
102.359996
-13.603462
98.605700
-14.064938
94.808943
-14.519565
91.051116
-14.974719
87.337463
-15.402235
83.655188
-15.779688
79.953363
-16.177021
76.280735
-16.564015
72.690851
-16.953451
69.189000
-17.282411
65.682750
-17.621292
62.246305
-17.935482
58.864820
-18.223618
55.512889
-18.495016
52.262158
-18.721474
49.059797
-18.945982
45.929633
-19.156891
42.857392
-19.300021
39.855251
-19.448247
36.922071
-19.519036
34.057852
-19.569131
31.287367
-19.586347
28.572956
-19.555112
25.955031
-19.525284
23.367172
-19.430478
20.878603
-19.334209
18.520997
-19.139864
16.207361
-18.946084
13.970884
-18.657150
11.804161
-18.367893
9.701726
-17.974733
7.728994
-17.563679
5.806312
-17.102508
3.998070
-16.576087
2.211969
-16.012285
0.556817
-15.362244
-1.054315
-14.670924
-2.626371
-13.927534
-4.032900
-13.064715
-5.429728
-12.171806
-6.728960
-11.204901
-7.956504
-10.215206
-9.115793
1.364891
-3.017190
3.704461
-5.113927
6.148443
-7.075540
8.723268
-8.934286
11.310701
-10.737608
14.014810
-12.419567
16.831683
-14.012471
19.711479
-15.486040
22.690833
-16.881371
25.734111
-18.190193
28.895443
-19.395934
32.121685
-20.503573
35.401015
-21.571245
38.798387
-22.500398
42.240572
-23.339401
45.713793
-24.133744
49.305517
-24.843923
52.924803
-25.425113
56.612207
-25.977493
60.354491
-26.437175
64.153016
-26.821265
67.979475
-27.111388
71.860181
-27.338806
75.749634
-27.528520
79.714696
-27.632791
83.677169
-27.644361
87.657053
-27.610704
91.676706
-27.529999
95.655018
-27.435966
99.728186
-27.231588
103.731552
-26.990706
107.772434
-26.687506
111.759977
-26.370965
115.781951
-25.992317
119.729431
-25.553649
123.654579
-25.132237
127.617314
-24.604645
131.476001
-24.143435
135.307700
-23.585096
139.115708
-22.980556
142.827643
-22.395410
146.509803
-21.779431
150.131376
-21.140123
153.679429
-20.502472
157.125655
-19.861254
160.504032
-19.183413
163.795968
-18.497826
166.973512
-17.803224
170.084818
-17.143262
173.092252
-16.441835
175.990257
-15.798246
178.765091
-15.102257
181.416568
-14.418928
183.996817
-13.767515
186.410029
-13.075332
188.671696
-12.442640
190.881291
-11.797356
192.920024
-11.184049
194.799481
-10.578013
196.562461
-10.003273
198.161515
-9.437148
199.623768
-8.909975
200.885674
-8.390219
202.067183
-7.904360
203.057758
-7.428606
203.895887
-6.974406
204.587734
-6.592167
205.136582
-6.164871
205.502694
-5.798606
205.746516
-5.493590
205.796103
-5.171343
205.704998
-4.901351
205.447153
-4.673039
205.027335
-4.438185
204.466859
-4.280013
203.755287
-4.097566
202.868121
-4.005288
201.851513
-3.896848
200.655053
-3.828635
199.343499
-3.784619
197.832259
-3.793793
196.239282
-3.800661
194.501950
-3.880535
192.603981
-3.978898
190.553529
-4.062224
188.429560
-4.191717
186.171309
-4.355272
183.777181
-4.510593
181.228939
-4.746682
178.645123
-4.961186
175.923950
-5.249404
173.045758
-5.510446
170.162774
-5.814795
167.105364
-6.158124
163.978932
-6.442507
160.766120
-6.789613
157.470736
-7.180567
154.152641
-7.550073
150.757989
-7.956376
147.306130
-8.331249
143.755882
-8.764184
140.174563
-9.205969
136.568794
-9.614728
132.912090
-10.089770
129.181876
-10.531067
125.449260
-10.990562
121.701479
-11.438017
117.940290
-11.924402
114.174770
-12.358037
110.361399
-12.818061
106.596218
-13.274890
102.808768
-13.726560
99.001895
-14.156215
95.257451
-14.618110
91.495780
-15.026898
87.762128
-15.458382
84.080272
-15.858973
80.431594
-16.306394
76.782205
-16.635152
73.196459
-17.004078
69.648837
-17.353199
66.127487
-17.674738
62.649926
-17.995672
59.287292
-18.294551
55.924288
-18.576365
52.630625
-18.761627
49.437404
-19.023224
46.255729
-19.237676
43.179219
-19.390926
40.126216
-19.558188
37.195292
-19.633089
34.298928
-19.693302
31.460466
-19.741355
28.783407
-19.719685
26.115716
-19.676131
23.491560
-19.579548
21.025604
-19.486141
18.585444
-19.282601
16.267664
-19.077934
14.009227
-18.806648
11.845699
-18.511815
9.722363
-18.161684
7.729959
-17.790422
5.760058
-17.256043
3.867251
-16.733273
2.130612
-16.181165
0.483702
-15.526955
-1.179025
-14.848754
-2.704246
-14.064079
-4.177490
-13.234947
-5.536236
-12.351039
-6.880174
-11.371413
-10.342390
-8.113140
-9.256618
0.445341
-2.203781
2.347802
-4.308659
4.643189
-6.316618
7.121432
-8.228715
9.660215
-10.026813
12.287716
-11.738353
14.939072
17.118200
-13.525914
19.991591
18.568467
-14.920978
23.004346
21.598801
-16.299096
24.588135
26.128738
-17.612754
27.695412
29.324663
-18.640809
32.484915
30.839337
-20.095598
34.127413
35.861389
-21.163214
39.449878
37.430402
-22.123648
41.911397
-23.039394
45.244624
-23.828554
48.794394
-24.709075
52.411245
-25.225743
56.063671
-25.753511
59.798748
-26.267599
63.448356
-26.678390
66.634311
-27.017772
71.283839
-27.283664
75.229930
-27.450134
-27.603645
79.140252
-27.669225
-27.649031
83.105520
-27.670704
-27.704173
87.107601
-27.652672
-27.690635
-27.616928
-27.542820
91.996117
-27.472249
-27.412532
95.689461
-27.330490
-27.203296
99.783929
-27.111688
-26.918327
103.957086
-26.701742
109.204501
-26.356988
116.098549
-26.011805
119.295748
-25.593477
122.517190
-25.164855
127.239459
-24.700735
131.186081
-24.269154
135.052431
-23.574870
139.615579
-23.016521
142.794232
-22.428775
146.401280
-21.657642
150.073458
-21.168165
153.676545
-20.634470
157.183352
160.495141
163.108222
-19.415359
166.482771
164.852415
-18.560142
169.855383
168.132445
-17.840259
171.337661
172.886939
-17.154045
174.363925
175.969360
-16.511992
177.254032
178.795612
-15.687207
180.143413
181.688612
-15.012953
182.901181
184.618724
-14.320145
186.362817
-13.611272
188.664834
-12.968094
190.995030
-12.198114
193.230980
-11.634518
195.294276
-11.012047
197.225386
-10.373124
199.008203
-9.835329
200.435223
-9.209142
202.285462
-8.688870
203.661706
-8.134505
-7.696236
204.871587
-7.499121
-7.245446
205.965326
-6.982731
-6.741154
206.885139
-6.539853
-6.316314
207.873434
-6.091641
-5.870642
208.257724
-5.501462
-5.713700
208.697653
-5.346674
-5.138823
209.056346
-4.760400
-4.987682
209.158831
-4.558922
209.140054
-4.296795
208.965666
-4.047954
208.645438
-3.792976
208.142613
-3.643048
207.505397
-3.474659
206.744365
-3.364760
205.578433
-3.235130
204.619400
-3.162583
203.463793
-3.099115
202.049561
-3.101453
200.547307
-3.089650
198.916592
-3.136108
197.169625
195.966858
-3.224976
194.568645
193.622065
-3.322258
192.379410
191.416971
-3.439307
189.246922
190.182043
-3.601930
187.920723
186.744716
-3.711823
184.291298
185.471616
-3.960783
182.829592
181.555779
-4.224563
178.760872
180.111621
-4.440394
176.589379
-4.733932
173.776469
-5.045675
170.700657
-5.407243
167.636221
-5.673691
164.465593
-6.014840
161.191137
-6.375829
157.950476
-6.737309
155.128819
-7.134834
150.973994
-7.557295
147.423813
-7.953871
-8.239494
143.852412
-8.510276
-8.710281
140.247857
-8.961606
-9.157374
136.535392
-9.416143
-9.581921
132.100801
-9.880755
-10.077182
129.006975
-10.308227
-10.521722
125.332710
-10.789341
-10.978826
121.573262
-11.278396
-11.446927
117.913712
-11.848780
114.844647
-12.264846
109.400135
-12.797132
106.330252
-13.213527
103.331445
-13.675145
98.775495
-14.098189
95.009725
-14.475255
91.290731
-14.994773
86.747795
-15.436529
83.685401
-15.830239
80.139862
-16.293181
76.547079
-16.638531
72.963496
-16.914426
69.451766
-17.384993
66.101900
-17.569438
63.638281
61.636508
-18.049548
60.067044
58.220631
-18.276637
56.554381
54.914617
-18.504229
53.271243
51.679181
-18.725571
50.063211
48.521019
-18.991838
46.771934
45.250034
-19.154308
43.723693
42.298958
-19.369704
40.606048
-19.467195
38.364874
-19.539626
35.561430
-19.650873
32.756901
-19.662183
29.980311
-19.653161
27.321695
-19.605766
24.742437
-19.512732
22.297044
-19.394523
20.243295
-19.203333
17.404278
-18.989606
15.099005
-18.832181
-18.658417
12.884919
-18.537324
-18.344001
10.767747
-18.151015
-17.950014
8.705501
-17.754340
-17.538157
6.340920
-17.055695
-17.322180
4.793124
-16.780241
-16.495462
3.074027
-15.926500
-16.183189
1.346968
-15.572870
-0.080933
-15.027551
-1.875865
-14.393115
-3.384768
-13.574229
-4.794572
-12.693569
-6.135544
-11.804131
-7.426653
-10.852950
-9.966330
-8.595007
SCALARS strain_2 float
LOOKUP_TABLE default
0.639649
0.466559
-0.302596
1.512820
-1.282132
2.351102
-2.315518
3.112991
-3.393990
3.808722
-4.580958
4.483174
-5.769956
5.110492
-7.068828
5.674544
-8.371153
6.231486
-9.754479
6.689521
-11.197813
7.143870
-12.732337
7.531546
-14.249121
7.893079
-15.914625
8.217754
-17.574950
8.464534
-19.304341
8.719895
-21.091431
8.927710
-22.955264
9.117766
-24.873313
9.253448
-26.834768
9.368981
-28.813172
9.435121
-30.918344
9.520693
-33.020312
9.532021
-35.196156
9.520398
-37.390146
9.543517
-39.658808
9.465124
-41.963546
9.406898
-44.288111
9.368354
-46.702282
9.260208
-49.115636
9.147939
-51.560844
9.010601
-54.065600