# vtk DataFile Version 2.0
Generated volume Mesh
ASCII
DATASET UNSTRUCTURED_GRID
POINTS 994 float
-0.416146 -0.294827 0.000000
-0.409251 -0.287252 0.000000
-0.421925 -0.286495 0.000000
-0.410201 -0.303043 0.000000
-0.427538 -0.278049 0.000000
-0.404095 -0.311138 0.000000
-0.432982 -0.269494 0.000000
-0.397829 -0.319111 0.000000
-0.438254 -0.260832 0.000000
-0.391406 -0.326958 0.000000
-0.443353 -0.252067 0.000000
-0.384828 -0.334675 0.000000
-0.448277 -0.243202 0.000000
-0.378098 -0.342260 0.000000
-0.453024 -0.234242 0.000000
-0.371218 -0.349710 0.000000
-0.457592 -0.225188 0.000000
-0.364192 -0.357021 0.000000
-0.461979 -0.216046 0.000000
-0.357021 -0.364192 0.000000
-0.466183 -0.206818 0.000000
-0.349710 -0.371218 0.000000
-0.470203 -0.197508 0.000000
-0.342260 -0.378098 0.000000
-0.474037 -0.188120 0.000000
-0.334675 -0.384828 0.000000
-0.477683 -0.178658 0.000000
-0.326958 -0.391406 0.000000
-0.481141 -0.169126 0.000000
-0.319111 -0.397829 0.000000
-0.484408 -0.159526 0.000000
-0.311138 -0.404095 0.000000
-0.487484 -0.149864 0.000000
-0.303043 -0.410201 0.000000
-0.490368 -0.140141 0.000000
-0.294827 -0.416146 0.000000
-0.493057 -0.130363 0.000000
-0.286495 -0.421925 0.000000
-0.495552 -0.120532 0.000000
-0.278049 -0.427538 0.000000
-0.497851 -0.110654 0.000000
-0.269494 -0.432982 0.000000
-0.499953 -0.100732 0.000000
-0.260832 -0.438254 0.000000
-0.501857 -0.090771 0.000000
-0.252067 -0.443353 0.000000
-0.503563 -0.080774 0.000000
-0.243202 -0.448277 0.000000
-0.505069 -0.070746 0.000000
-0.234242 -0.453024 0.000000
-0.506376 -0.060691 0.000000
-0.225188 -0.457592 0.000000
-0.507482 -0.050612 0.000000
-0.216046 -0.461979 0.000000
-0.508388 -0.040514 0.000000
-0.206818 -0.466183 0.000000
-0.509093 -0.030400 0.000000
-0.197508 -0.470203 0.000000
-0.509597 -0.020274 0.000000
-0.188120 -0.474037 0.000000
-0.509899 -0.010139 0.000000
-0.178658 -0.477683 0.000000
-0.510000 0.000000 0.000000
-0.169126 -0.481141 0.000000
-0.509899 0.010139 0.000000
-0.509597 0.020274 0.000000
-0.159526 -0.484408 0.000000
-0.509093 0.030400 0.000000
-0.149864 -0.487484 0.000000
-0.508388 0.040514 0.000000
-0.140141 -0.490368 0.000000
-0.507482 0.050612 0.000000
-0.130363 -0.493057 0.000000
-0.506376 0.060691 0.000000
-0.120532 -0.495552 0.000000
-0.505069 0.070746 0.000000
-0.110654 -0.497851 0.000000
-0.503563 0.080774 0.000000
-0.100732 -0.499953 0.000000
-0.501857 0.090771 0.000000
-0.090771 -0.501857 0.000000
-0.499953 0.100732 0.000000
-0.080774 -0.503563 0.000000
-0.497851 0.110654 0.000000
-0.070746 -0.505069 0.000000
-0.495552 0.120532 0.000000
-0.060691 -0.506376 0.000000
-0.493057 0.130363 0.000000
-0.050612 -0.507482 0.000000
-0.490368 0.140141 0.000000
-0.040514 -0.508388 0.000000
-0.487484 0.149864 0.000000
-0.484408 0.159526 0.000000
-0.030400 -0.509093 0.000000
-0.020274 -0.509597 0.000000
-0.481141 0.169126 0.000000
-0.010139 -0.509899 0.000000
-0.477683 0.178658 0.000000
0.000000 -0.510000 0.000000
-0.474037 0.188120 0.000000
0.010139 -0.509899 0.000000
-0.470203 0.197508 0.000000
0.020274 -0.509597 0.000000
-0.466183 0.206818 0.000000
0.030400 -0.509093 0.000000
-0.461979 0.216046 0.000000
0.040514 -0.508388 0.000000
-0.457592 0.225188 0.000000
0.050612 -0.507482 0.000000
-0.453024 0.234242 0.000000
0.060691 -0.506376 0.000000
-0.448277 0.243202 0.000000
0.070746 -0.505069 0.000000
-0.443353 0.252067 0.000000
0.080774 -0.503563 0.000000
-0.438254 0.260832 0.000000
0.090771 -0.501857 0.000000
-0.432982 0.269494 0.000000
0.100732 -0.499953 0.000000
-0.427538 0.278049 0.000000
0.110654 -0.497851 0.000000
-0.421925 0.286495 0.000000
0.120532 -0.495552 0.000000
-0.416146 0.294827 0.000000
0.130363 -0.493057 0.000000
-0.410201 0.303043 0.000000
0.140141 -0.490368 0.000000
-0.404095 0.311138 0.000000
0.149864 -0.487484 0.000000
0.159526 -0.484408 0.000000
-0.397829 0.319111 0.000000
0.169126 -0.481141 0.000000
-0.391406 0.326958 0.000000
0.178658 -0.477683 0.000000
-0.384828 0.334675 0.000000
0.188120 -0.474037 0.000000
-0.378098 0.342260 0.000000
0.197508 -0.470203 0.000000
-0.371218 0.349710 0.000000
0.206818 -0.466183 0.000000
-0.364192 0.357021 0.000000
0.216046 -0.461979 0.000000
-0.357021 0.364192 0.000000
0.225188 -0.457592 0.000000
-0.349710 0.371218 0.000000
0.234242 -0.453024 0.000000
-0.342260 0.378098 0.000000
0.243202 -0.448277 0.000000
-0.334675 0.384828 0.000000
0.252067 -0.443353 0.000000
-0.326958 0.391406 0.000000
0.260832 -0.438254 0.000000
-0.319111 0.397829 0.000000
0.269494 -0.432982 0.000000
-0.311138 0.404095 0.000000
0.278049 -0.427538 0.000000
-0.303043 0.410201 0.000000
0.286495 -0.421925 0.000000
-0.294827 0.416146 0.000000
0.294827 -0.416146 0.000000
-0.286495 0.421925 0.000000
0.303043 -0.410201 0.000000
-0.278049 0.427538 0.000000
0.311138 -0.404095 0.000000
-0.269494 0.432982 0.000000
0.319111 -0.397829 0.000000
-0.260832 0.438254 0.000000
0.326958 -0.391406 0.000000
-0.252067 0.443353 0.000000
0.334675 -0.384828 0.000000
-0.243202 0.448277 0.000000
0.342260 -0.378098 0.000000
-0.234242 0.453024 0.000000
0.349710 -0.371218 0.000000
-0.225188 0.457592 0.000000
0.357021 -0.364192 0.000000
-0.216046 0.461979 0.000000
0.364192 -0.357021 0.000000
-0.206818 0.466183 0.000000
0.371218 -0.349710 0.000000
-0.197508 0.470203 0.000000
0.378098 -0.342260 0.000000
-0.188120 0.474037 0.000000
0.384828 -0.334675 0.000000
-0.178658 0.477683 0.000000
0.391406 -0.326958 0.000000
-0.169126 0.481141 0.000000
0.397829 -0.319111 0.000000
-0.159526 0.484408 0.000000
0.404095 -0.311138 0.000000
-0.149864 0.487484 0.000000
0.410201 -0.303043 0.000000
-0.140141 0.490368 0.000000
0.416146 -0.294827 0.000000
-0.130363 0.493057 0.000000
0.421925 -0.286495 0.000000
-0.120532 0.495552 0.000000
0.427538 -0.278049 0.000000
-0.110654 0.497851 0.000000
0.432982 -0.269494 0.000000
-0.100732 0.499953 0.000000
0.438254 -0.260832 0.000000
-0.090771 0.501857 0.000000
0.443353 -0.252067 0.000000
-0.080774 0.503563 0.000000
0.448277 -0.243202 0.000000
-0.070746 0.505069 0.000000
0.453024 -0.234242 0.000000
-0.060691 0.506376 0.000000
0.457592 -0.225188 0.000000
-0.050612 0.507482 0.000000
0.461979 -0.216046 0.000000
-0.040514 0.508388 0.000000
0.466183 -0.206818 0.000000
-0.030400 0.509093 0.000000
0.470203 -0.197508 0.000000
-0.020274 0.509597 0.000000
0.474037 -0.188120 0.000000
-0.010139 0.509899 0.000000
0.477683 -0.178658 0.000000
0.000000 0.510000 0.000000
0.481141 -0.169126 0.000000
0.010139 0.509899 0.000000
0.484408 -0.159526 0.000000
0.020274 0.509597 0.000000
0.487484 -0.149864 0.000000
0.030400 0.509093 0.000000
0.490368 -0.140141 0.000000
0.040514 0.508388 0.000000
0.493057 -0.130363 0.000000
0.050612 0.507482 0.000000
0.495552 -0.120532 0.000000
0.060691 0.506376 0.000000
0.497851 -0.110654 0.000000
0.070746 0.505069 0.000000
0.499953 -0.100732 0.000000
0.080774 0.503563 0.000000
0.501857 -0.090771 0.000000
0.090771 0.501857 0.000000
0.503563 -0.080774 0.000000
0.100732 0.499953 0.000000
0.505069 -0.070746 0.000000
0.110654 0.497851 0.000000
0.506376 -0.060691 0.000000
0.120532 0.495552 0.000000
0.507482 -0.050612 0.000000
0.130363 0.493057 0.000000
0.508388 -0.040514 0.000000
0.140141 0.490368 0.000000
0.509093 -0.030400 0.000000
0.149864 0.487484 0.000000
0.509597 -0.020274 0.000000
0.159526 0.484408 0.000000
0.509899 -0.010139 0.000000
0.169126 0.481141 0.000000
0.510000 0.000000 0.000000
0.178658 0.477683 0.000000
0.509899 0.010139 0.000000
0.188120 0.474037 0.000000
0.509597 0.020274 0.000000
0.197508 0.470203 0.000000
0.509093 0.030400 0.000000
0.206818 0.466183 0.000000
0.508388 0.040514 0.000000
0.216046 0.461979 0.000000
0.507482 0.050612 0.000000
0.225188 0.457592 0.000000
0.506376 0.060691 0.000000
0.234242 0.453024 0.000000
0.505069 0.070746 0.000000
0.243202 0.448277 0.000000
0.503563 0.080774 0.000000
0.252067 0.443353 0.000000
0.501857 0.090771 0.000000
0.260832 0.438254 0.000000
0.499953 0.100732 0.000000
0.269494 0.432982 0.000000
0.497851 0.110654 0.000000
0.278049 0.427538 0.000000
0.495552 0.120532 0.000000
0.286495 0.421925 0.000000
0.493057 0.130363 0.000000
0.294827 0.416146 0.000000
0.490368 0.140141 0.000000
0.303043 0.410201 0.000000
0.487484 0.149864 0.000000
0.311138 0.404095 0.000000
0.484408 0.159526 0.000000
0.319111 0.397829 0.000000
0.481141 0.169126 0.000000
0.326958 0.391406 0.000000
0.477683 0.178658 0.000000
0.334675 0.384828 0.000000
0.474037 0.188120 0.000000
0.342260 0.378098 0.000000
0.470203 0.197508 0.000000
0.349710 0.371218 0.000000
0.466183 0.206818 0.000000
0.357021 0.364192 0.000000
0.461979 0.216046 0.000000
0.364192 0.357021 0.000000
0.457592 0.225188 0.000000
0.371218 0.349710 0.000000
0.453024 0.234242 0.000000
0.378098 0.342260 0.000000
0.448277 0.243202 0.000000
0.384828 0.334675 0.000000
0.443353 0.252067 0.000000
0.391406 0.326958 0.000000
0.438254 0.260832 0.000000
0.397829 0.319111 0.000000
0.432982 0.269494 0.000000
0.404095 0.311138 0.000000
0.427538 0.278049 0.000000
0.410201 0.303043 0.000000
0.421925 0.286495 0.000000
0.416146 0.294827 0.000000
-0.415025 -0.278844 0.000000
-0.403306 -0.295541 0.000000
-0.420627 -0.270320 0.000000
-0.397194 -0.303706 0.000000
-0.426054 -0.261684 0.000000
-0.390916 -0.311745 0.000000
-0.431303 -0.252938 0.000000
-0.384475 -0.319654 0.000000
-0.436373 -0.244088 0.000000
-0.377875 -0.327430 0.000000
-0.441261 -0.235136 0.000000
-0.371117 -0.335070 0.000000
-0.445965 -0.226086 0.000000
-0.364205 -0.342571 0.000000
-0.450484 -0.216942 0.000000
-0.357141 -0.349929 0.000000
-0.454816 -0.207707 0.000000
-0.349929 -0.357141 0.000000
-0.458958 -0.198386 0.000000
-0.342571 -0.364205 0.000000
-0.462910 -0.188983 0.000000
-0.335070 -0.371117 0.000000
-0.466668 -0.179501 0.000000
-0.327430 -0.377875 0.000000
-0.470233 -0.169944 0.000000
-0.319654 -0.384475 0.000000
-0.473602 -0.160317 0.000000
-0.311745 -0.390916 0.000000
-0.476773 -0.150623 0.000000
-0.303706 -0.397194 0.000000
-0.479747 -0.140866 0.000000
-0.295541 -0.403306 0.000000
-0.482520 -0.131050 0.000000
-0.287252 -0.409251 0.000000
-0.485094 -0.121178 0.000000
[...]
POINT_DATA 994
SCALARS u1 float
LOOKUP_TABLE default
-0.02
-0.02
-0.02
-0.01
-0.02
-0.01
-0.02
-0.01
-0.02
-0.009
-0.03
-0.008
-0.03
-0.007
-0.03
-0.006
-0.03
-0.006
-0.04
-0.005
-0.04
-0.005
-0.04
-0.006
-0.05
-0.006
-0.05
-0.006
-0.06
-0.007
-0.06
-0.007
-0.07
-0.008
-0.07
-0.008
-0.07
-0.009
-0.08
-0.01
-0.08
-0.01
-0.09
-0.01
-0.09
-0.01
-0.1
-0.01
-0.1
-0.01
-0.1
-0.02
-0.1
-0.02
-0.1
-0.02
-0.1
-0.02
-0.1
-0.02
-0.1
-0.02
-0.1
-0.02
-0.1
-0.1
-0.02
-0.1
-0.02
-0.1
-0.03
-0.1
-0.03
-0.1
-0.03
-0.1
-0.03
-0.1
-0.03
-0.1
-0.03
-0.1
-0.03
-0.09
-0.03
-0.09
-0.03
-0.08
-0.03
-0.08
-0.03
-0.08
-0.07
-0.03
-0.03
-0.07
-0.03
-0.07
-0.03
-0.06
-0.03
-0.06
-0.03
-0.06
-0.03
-0.05
-0.03
-0.05
-0.03
-0.05
-0.03
-0.05
-0.03
-0.05
-0.03
-0.04
-0.03
-0.04
-0.03
-0.04
-0.03
-0.04
-0.03
-0.04
-0.03
-0.04
-0.03
-0.04
-0.03
-0.04
-0.04
-0.04
-0.04
-0.04
-0.04
-0.04
-0.04
-0.04
-0.04
-0.04
-0.04
-0.05
-0.04
-0.05
-0.04
-0.05
-0.04
-0.05
-0.04
-0.05
-0.04
-0.05
-0.04
-0.05
-0.04
-0.05
-0.04
-0.06
-0.04
-0.06
-0.04
-0.06
-0.05
-0.06
-0.05
-0.06
-0.05
-0.06
-0.05
-0.06
-0.05
-0.06
-0.05
-0.06
-0.05
-0.06
-0.06
-0.06
-0.06
-0.07
-0.06
-0.06
-0.06
-0.06
-0.06
-0.06
-0.06
-0.06
-0.07
-0.06
-0.07
-0.06
-0.07
-0.06
-0.07
-0.06
-0.07
-0.06
-0.07
-0.06
-0.07
-0.06
-0.07
-0.05
-0.07
-0.05
-0.07
-0.05
-0.07
-0.05
-0.07
-0.05
-0.07
-0.04
-0.07
-0.04
-0.07
-0.04
-0.07
-0.03
-0.07
-0.03
-0.07
-0.03
-0.07
-0.02
-0.07
-0.02
-0.07
-0.01
-0.07
-0.01
-0.07
-0.006
-0.07
-0.002
-0.07
0.001
-0.07
0.005
-0.07
0.008
-0.07
0.01
-0.07
0.01
-0.07
0.02
-0.08
0.02
-0.08
0.02
-0.08
0.02
-0.08
0.02
-0.08
0.02
-0.08
0.02
-0.08
0.01
-0.08
0.01
-0.09
0.009
-0.09
0.005
-0.09
0.001
-0.09
-0.003
-0.09
-0.007
-0.09
-0.01
-0.09
-0.02
-0.09
-0.02
-0.09
-0.03
-0.09
-0.03
-0.09
-0.04
-0.09
-0.04
-0.1
-0.04
-0.1
-0.05
-0.1
-0.05
-0.1
-0.06
-0.1
-0.06
-0.1
-0.07
-0.1
-0.07
-0.1
-0.07
-0.1
-0.07
-0.09
-0.08
-0.09
-0.08
-0.09
-0.08
-0.09
-0.08
-0.09
-0.09
-0.09
-0.02
-0.02
-0.02
-0.01
-0.02
-0.01
-0.02
-0.01
-0.03
-0.009
-0.03
-0.008
-0.03
-0.007
-0.04
-0.006
-0.04
-0.006
-0.04
-0.005
-0.05
-0.005
-0.05
-0.005
-0.06
-0.006
-0.06
-0.006
-0.06
-0.007
-0.07
-0.007
-0.07
-0.008
-0.08
-0.008
-0.08
-0.009
-0.09
-0.009
-0.09
-0.01
-0.1
-0.01
-0.1
-0.01
-0.1
-0.01
-0.1
-0.01
-0.1
-0.01
-0.1
-0.02
-0.1
-0.02
-0.1
-0.02
-0.1
-0.02
-0.1
-0.02
-0.1
-0.02
-0.1
-0.02
-0.1
-0.02
-0.1
-0.02
-0.1
-0.02
-0.1
-0.03
-0.1
-0.03
-0.1
-0.03
-0.1
-0.03
-0.09
-0.03
-0.09
-0.03
-0.08
-0.03
-0.08
-0.03
-0.08
-0.03
-0.07
-0.03
-0.07
-0.03
-0.07
-0.03
-0.06
-0.03
-0.06
-0.03
-0.06
-0.03
-0.05
-0.03
-0.05
-0.03
-0.05
-0.03
-0.05
-0.03
-0.05
-0.03
-0.04
-0.03
-0.04
-0.03
-0.04
-0.04
-0.04
-0.04
-0.04
-0.04
-0.04
-0.04
-0.04
-0.04
-0.04
-0.04
-0.04
-0.04
-0.04
-0.05
-0.04
-0.05
-0.04
-0.05
-0.04
-0.05
-0.04
-0.05
-0.04
-0.05
-0.04
-0.05
-0.04
-0.05
-0.04
-0.06
-0.04
-0.06
-0.04
-0.06
-0.04
-0.06
-0.04
-0.06
-0.04
-0.06
-0.05
-0.06
-0.05
-0.06
-0.05
-0.06
-0.05
-0.06
-0.05
-0.06
-0.05
-0.07
-0.05
-0.07
-0.05
-0.07
-0.06
-0.06
-0.06
-0.06
-0.06
-0.06
-0.06
-0.06
-0.06
-0.06
-0.06
-0.06
-0.06
-0.06
-0.07
-0.06
-0.07
-0.06
-0.07
-0.06
-0.07
-0.05
-0.07
-0.05
-0.07
-0.05
-0.07
-0.05
-0.07
-0.05
-0.07
-0.04
-0.07
-0.04
-0.07
-0.04
-0.07
-0.03
-0.07
-0.03
-0.07
-0.03
-0.07
-0.02
-0.07
-0.02
-0.07
-0.01
-0.07
-0.01
-0.07
-0.006
-0.07
-0.002
-0.07
0.001
-0.08
0.005
-0.08
0.008
-0.08
0.01
-0.08
0.01
-0.08
0.02
-0.08
0.02
-0.08
0.02
-0.08
0.02
-0.08
0.02
-0.08
0.02
-0.09
0.02
-0.09
0.01
-0.09
0.01
-0.09
0.008
-0.09
0.005
-0.09
0.001
-0.09
-0.003
-0.09
-0.007
-0.09
-0.01
-0.09
-0.02
-0.09
-0.02
-0.09
-0.03
-0.1
-0.03
-0.1
-0.04
-0.1
-0.04
-0.1
-0.05
-0.1
-0.05
-0.1
-0.05
-0.1
-0.06
-0.1
-0.06
-0.1
-0.07
-0.1
-0.07
-0.09
-0.07
-0.09
-0.07
-0.09
-0.08
-0.09
-0.08
-0.09
-0.08
-0.08
-0.09
-0.09
-0.02
-0.02
-0.02
-0.01
-0.02
-0.01
-0.02
-0.01
-0.02
-0.009
-0.03
-0.008
-0.03
-0.03
-0.007
-0.04
-0.03
-0.006
-0.04
-0.04
-0.006
-0.04
-0.04
-0.005
-0.04
-0.05
-0.005
-0.05
-0.05
-0.006
-0.05
-0.05
-0.006
-0.06
-0.06
-0.006
-0.06
-0.007
-0.07
-0.007
-0.07
-0.008
-0.08
-0.008
-0.08
-0.009
-0.09
-0.01
-0.09
-0.01
-0.09
-0.01
-0.1
-0.01
-0.1
-0.01
-0.01
-0.1
-0.01
-0.01
-0.1
-0.02
-0.01
-0.1
-0.02
-0.02
-0.02
-0.02
-0.1
-0.02
-0.02
-0.1
-0.02
-0.02
-0.1
-0.02
-0.02
-0.1
-0.02
-0.1
-0.02
-0.1
-0.02
-0.1
-0.03
-0.1
-0.03
-0.1
-0.03
-0.1
-0.03
-0.1
-0.03
-0.1
-0.03
-0.09
-0.03
-0.09
-0.03
-0.09
-0.03
-0.08
-0.03
-0.08
-0.07
-0.07
-0.03
-0.07
-0.07
-0.03
-0.06
-0.07
-0.03
-0.06
-0.06
-0.03
-0.06
-0.06
-0.03
-0.06
-0.06
-0.03
-0.05
-0.05
-0.03
-0.05
-0.05
-0.03
-0.05
-0.03
-0.05
-0.03
-0.05
-0.03
-0.04
-0.03
-0.04
-0.03
-0.04
-0.03
-0.04
-0.03
-0.04
-0.03
-0.04
-0.04
-0.04
-0.04
-0.04
-0.04
-0.04
-0.04
-0.04
-0.04
-0.04
-0.04
-0.04
-0.04
-0.04
-0.04
-0.04
-0.04
-0.05
-0.05
-0.04
-0.05
-0.05
-0.04
-0.05
-0.05
-0.04
-0.05
-0.04
-0.05
-0.04
-0.05
-0.04
-0.05
-0.04
-0.06
-0.04
-0.06
-0.04
-0.06
-0.04
-0.06
-0.04
-0.06
-0.05
-0.06
-0.05
-0.06
-0.05
-0.06
-0.05
-0.06
-0.05
-0.05
-0.06
-0.05
-0.05
-0.06
-0.05
-0.05
-0.06
-0.06
-0.06
-0.07
-0.06
-0.06
-0.07
-0.06
-0.06
-0.06
-0.06
-0.06
-0.06
-0.06
-0.06
-0.06
-0.06
-0.06
-0.06
-0.06
-0.07
-0.06
-0.07
-0.06
-0.07
-0.06
-0.07
-0.06
-0.07
-0.06
-0.07
-0.05
-0.07
-0.05
-0.07
-0.05
-0.05
-0.07
-0.05
-0.05
-0.07
-0.05
-0.04
-0.07
-0.04
-0.04
-0.07
-0.04
-0.04
-0.07
-0.04
-0.03
-0.07
-0.03
-0.03
-0.07
-0.03
-0.03
-0.07
-0.02
-0.07
-0.02
-0.07
-0.02
-0.07
-0.01
-0.07
-0.008
-0.07
-0.004
-0.07
-0.001
-0.07
0.003
-0.07
0.006
-0.07
0.009
-0.08
0.01
-0.08
0.01
-0.08
0.02
-0.08
0.02
-0.08
0.02
-0.08
-0.08
0.02
-0.08
-0.08
0.02
-0.08
-0.08
0.02
-0.08
-0.08
0.02
-0.08
-0.09
0.01
-0.09
-0.09
0.01
-0.09
-0.09
0.007
-0.09
0.003
-0.09
-0.0006
-0.09
-0.006
-0.09
-0.009
-0.09
-0.01
-0.09
-0.02
-0.09
-0.02
-0.09
-0.03
-0.09
-0.03
-0.1
-0.04
-0.1
-0.04
-0.04
-0.1
-0.05
-0.05
-0.1
-0.05
-0.05
-0.1
-0.06
-0.06
-0.1
-0.06
-0.06
-0.1
-0.06
-0.06
-0.1
-0.07
-0.07
-0.1
-0.07
-0.1
-0.07
-0.09
-0.07
-0.09
-0.08
-0.09
-0.08
-0.09
-0.08
-0.09
-0.08
-0.09
-0.09
SCALARS u2 float
LOOKUP_TABLE default
-0.04
-0.04
-0.04
-0.04
-0.05
-0.04
-0.05
-0.04
-0.05
-0.04
-0.05
-0.04
-0.05
-0.04
-0.05
-0.04
-0.05
-0.04
-0.05
-0.04
-0.06
-0.03
-0.06
-0.03
-0.06
-0.04
-0.06
-0.04
-0.06
-0.04
-0.06
-0.04
-0.07
-0.04
-0.07
-0.04
-0.07
-0.04
-0.07
-0.04
-0.07
-0.04
-0.07
-0.04
-0.07
-0.04
-0.07
-0.05
-0.07
-0.05
-0.07
-0.05
-0.07
-0.05
-0.07
-0.06
-0.07
-0.06
-0.07
-0.06
-0.07
-0.06
-0.07
-0.07
-0.07
-0.07
-0.07
-0.07
-0.08
-0.07
-0.08
-0.07
-0.08
-0.07
-0.09
-0.07
-0.09
-0.07
-0.09
-0.07
-0.1
-0.07
-0.1
-0.07
-0.1
-0.07
-0.1
-0.07
-0.1
-0.07
-0.1
-0.08
-0.08
-0.1
-0.1
-0.08
-0.1
-0.08
-0.1
-0.08
-0.1
-0.08
-0.1
-0.08
-0.1
-0.08
-0.1
-0.09
-0.1
-0.09
-0.1
-0.09
-0.1
-0.09
-0.09
-0.09
-0.09
-0.09
-0.09
-0.09
-0.08
-0.09
-0.08
-0.09
-0.07
-0.09
-0.07
-0.09
-0.06
-0.06
-0.09
-0.05
-0.09
-0.05
-0.09
-0.04
-0.1
-0.04
-0.1
-0.04
-0.1
-0.03
-0.09
-0.03
-0.09
-0.03
-0.09
-0.02
-0.09
-0.02
-0.09
-0.02
-0.09
-0.02
-0.09
-0.02
-0.09
-0.01
-0.09
-0.01
-0.08
-0.01
-0.08
-0.009
-0.08
-0.008
-0.08
-0.007
-0.08
-0.005
-0.07
-0.004
-0.07
-0.004
-0.07
-0.003
-0.06
-0.003
-0.06
-0.003
-0.06
-0.003
-0.05
-0.004
-0.05
-0.004
-0.04
-0.005
-0.04
-0.005
-0.03
-0.006
-0.03
-0.006
-0.02
-0.007
-0.02
-0.008
-0.02
-0.008
-0.01
-0.009
-0.006
-0.01
-0.002
-0.01
0.002
-0.01
0.005
-0.01
0.009
-0.01
0.01
-0.02
0.01
-0.02
0.02
-0.02
0.02
-0.02
0.02
-0.02
0.02
-0.02
0.02
-0.02
0.02
-0.02
0.01
-0.03
0.01
-0.03
0.01
-0.03
0.007
-0.03
0.004
-0.03
0.0008
-0.03
-0.003
-0.03
-0.007
-0.03
-0.01
-0.03
-0.01
-0.03
-0.02
-0.03
-0.02
-0.03
-0.03
-0.03
-0.03
-0.03
-0.03
-0.03
-0.04
-0.03
-0.04
-0.03
-0.04
-0.03
-0.05
-0.03
-0.05
-0.03
-0.05
-0.03
-0.05
-0.03
-0.05
-0.03
-0.06
-0.03
-0.06
-0.03
-0.06
-0.03
-0.06
-0.03
-0.06
-0.03
-0.06
-0.03
-0.06
-0.04
-0.06
-0.04
-0.06
-0.04
-0.07
-0.04
-0.07
-0.04
-0.07
-0.04
-0.07
-0.05
-0.07
-0.05
-0.06
-0.05
-0.06
-0.05
-0.06
-0.05
-0.06
-0.05
-0.06
-0.05
-0.06
-0.06
-0.06
-0.06
-0.06
-0.04
-0.04
-0.04
-0.04
-0.04
-0.04
-0.05
-0.04
-0.05
-0.04
-0.05
-0.04
-0.05
-0.04
-0.05
-0.04
-0.05
-0.03
-0.05
-0.03
-0.06
-0.04
-0.06
-0.04
-0.06
-0.04
-0.06
-0.04
-0.06
-0.04
-0.06
-0.04
-0.06
-0.04
-0.06
-0.04
-0.07
-0.04
-0.07
-0.04
-0.07
-0.04
-0.07
-0.05
-0.07
-0.05
-0.07
-0.05
-0.07
-0.05
-0.07
-0.06
-0.07
-0.06
-0.07
-0.06
-0.07
-0.06
-0.07
-0.07
-0.07
-0.07
-0.07
-0.08
-0.07
-0.08
-0.07
-0.08
-0.07
-0.09
-0.07
-0.09
-0.07
-0.09
-0.07
-0.1
-0.07
-0.1
-0.07
-0.1
-0.08
-0.1
-0.08
-0.1
-0.08
-0.1
-0.08
-0.1
-0.08
-0.1
-0.08
-0.1
-0.08
-0.1
-0.08
-0.1
-0.08
-0.1
-0.09
-0.1
-0.09
-0.1
-0.09
-0.1
-0.09
-0.1
-0.09
-0.1
-0.09
-0.09
-0.09
-0.09
-0.09
-0.09
-0.09
-0.08
-0.09
-0.08
-0.09
-0.07
-0.09
-0.07
-0.09
-0.06
-0.09
-0.06
-0.09
-0.05
-0.1
-0.05
-0.1
-0.04
-0.1
-0.04
-0.09
-0.04
-0.09
-0.03
-0.09
-0.03
-0.09
-0.03
-0.09
-0.02
-0.09
-0.02
-0.09
-0.02
-0.09
-0.02
-0.09
-0.02
-0.08
-0.01
-0.08
-0.01
-0.08
-0.01
-0.08
-0.009
-0.08
-0.008
-0.07
-0.006
-0.07
-0.005
-0.07
-0.004
-0.06
-0.004
-0.06
-0.003
-0.06
-0.003
-0.05
-0.003
-0.05
-0.003
-0.04
-0.003
-0.04
-0.004
-0.03
-0.004
-0.03
-0.005
-0.03
-0.006
-0.02
-0.006
-0.02
-0.007
-0.01
-0.007
-0.006
-0.008
-0.002
-0.009
0.002
-0.01
0.005
-0.01
0.009
-0.01
0.01
-0.01
0.01
-0.01
0.02
-0.01
0.02
-0.02
0.02
-0.02
0.02
-0.02
0.02
-0.02
0.02
-0.02
0.01
-0.02
0.01
-0.02
0.01
-0.02
0.007
-0.02
0.004
-0.02
0.0007
-0.03
-0.003
-0.03
-0.007
-0.03
-0.01
-0.03
-0.01
-0.03
-0.02
-0.03
-0.02
-0.03
-0.03
-0.03
-0.03
-0.03
-0.03
-0.03
-0.04
-0.03
-0.04
-0.03
-0.04
-0.03
-0.05
-0.03
-0.05
-0.03
-0.05
-0.03
-0.05
-0.03
-0.06
-0.03
-0.06
-0.03
-0.06
-0.03
-0.06
-0.04
-0.06
-0.04
-0.06
-0.04
-0.06
-0.04
-0.06
-0.04
-0.06
-0.04
-0.06
-0.04
-0.07
-0.04
-0.07
-0.05
-0.07
-0.05
-0.07
-0.05
-0.07
-0.05
-0.06
-0.05
-0.06
-0.05
-0.06
-0.05
-0.06
-0.06
-0.06
-0.06
-0.06
-0.06
-0.06
-0.04
-0.04
-0.04
-0.04
-0.05
-0.04
-0.05
-0.04
-0.05
-0.04
-0.05
-0.04
-0.05
-0.05
-0.04
-0.05
-0.05
-0.04
-0.05
-0.05
-0.04
-0.05
-0.06
-0.03
-0.06
-0.06
-0.03
-0.06
-0.06
-0.04
-0.06
-0.06
-0.04
-0.06
-0.06
-0.04
-0.06
-0.04
-0.06
-0.04
-0.07
-0.04
-0.07
-0.04
-0.07
-0.04
-0.07
-0.04
-0.07
-0.04
-0.07
-0.04
-0.07
-0.05
-0.07
-0.05
-0.05
-0.07
-0.05
-0.05
-0.07
-0.05
-0.05
-0.07
-0.06
-0.06
-0.06
-0.06
-0.07
-0.06
-0.06
-0.07
-0.07
-0.07
-0.07
-0.07
-0.07
-0.07
-0.07
-0.07
-0.08
-0.07
-0.08
-0.07
-0.09
-0.07
-0.09
-0.07
-0.09
-0.07
-0.1
-0.07
-0.1
-0.07
-0.1
-0.07
-0.1
-0.07
-0.1
-0.07
-0.1
-0.08
-0.1
-0.08
-0.08
-0.08
-0.1
-0.08
-0.08
-0.1
-0.08
-0.08
-0.1
-0.08
-0.08
-0.1
-0.08
-0.08
-0.1
-0.08
-0.08
-0.1
-0.09
-0.09
-0.1
-0.09
-0.09
-0.1
-0.09
-0.1
-0.09
-0.1
-0.09
-0.09
-0.09
-0.09
-0.09
-0.08
-0.09
-0.08
-0.09
-0.07
-0.09
-0.07
-0.09
-0.06
-0.09
-0.06
-0.06
-0.09
-0.05
-0.05
-0.09
-0.05
-0.05
-0.1
-0.05
-0.04
-0.1
-0.04
-0.04
-0.1
-0.04
-0.04
-0.09
-0.03
-0.03
-0.09
-0.03
-0.03
-0.09
-0.03
-0.09
-0.02
-0.09
-0.02
-0.09
-0.02
-0.09
-0.02
-0.09
-0.02
-0.09
-0.01
-0.08
-0.01
-0.08
-0.01
-0.08
-0.009
-0.08
-0.008
-0.08
-0.007
-0.07
-0.005
-0.07
-0.07
-0.004
-0.07
-0.06
-0.004
-0.06
-0.06
-0.003
-0.06
-0.06
-0.003
-0.06
-0.05
-0.003
-0.05
-0.05
-0.003
-0.05
-0.05
-0.003
-0.04
-0.04
-0.004
-0.04
-0.005
-0.03
-0.005
-0.03
-0.006
-0.02
-0.006
-0.02
-0.007
-0.01
-0.008
-0.009
-0.008
-0.005
-0.009
-0.0002
-0.01
0.004
-0.01
-0.01
0.007
-0.01
-0.01
0.01
-0.01
-0.01
0.01
-0.01
-0.02
0.02
-0.02
-0.02
0.02
-0.02
-0.02
0.02
-0.02
-0.02
0.02
-0.02
-0.02
0.02
-0.02
0.02
-0.02
0.02
-0.02
0.01
-0.02
0.01
-0.03
0.009
-0.03
0.006
-0.03
0.002
-0.03
-0.002
-0.03
-0.005
-0.03
-0.009
-0.03
-0.01
-0.03
-0.02
-0.03
-0.02
-0.03
-0.02
-0.03
-0.03
-0.03
-0.03
-0.03
-0.03
-0.03
-0.04
-0.04
-0.03
-0.04
-0.04
-0.03
-0.04
-0.04
-0.03
-0.04
-0.05
-0.03
-0.05
-0.05
-0.03
-0.05
-0.03
-0.05
-0.03
-0.05
-0.03
-0.06
-0.03
-0.06
-0.03
-0.06
-0.03
-0.06
-0.03
-0.06
-0.03
-0.06
-0.04
-0.06
-0.04
-0.06
-0.04
-0.04
-0.06
-0.04
-0.04
-0.06
-0.04
-0.04
-0.07
-0.04
-0.04
-0.07
-0.05
-0.04
-0.07
-0.05
-0.05
-0.07
-0.05
-0.05
-0.07
-0.05
-0.06
-0.05
-0.06
-0.05
-0.06
-0.05
-0.06
-0.05
-0.06
-0.06
-0.06
-0.06
-0.06
-0.06
SCALARS strain_1 float
LOOKUP_TABLE default
-0.098488
-0.065420
0.061452
-0.249556
0.226662
-0.394382
0.400101
-0.532173
0.578479
-0.663602
0.759076
-0.786960
0.953033
-0.904540
1.151955
-1.017045
1.353985
-1.120634
1.565498
-1.217292
1.781797
-1.310229
2.004556
-1.395111
2.231427
-1.471821
2.463935
-1.544728
2.704912
-1.612245
2.947925
-1.668458
3.196262
-1.725092
3.448520
-1.772383
3.709185
-1.814271
3.972759
-1.852196
4.235791
-1.881344
4.508411
-1.906782
4.783781
-1.929554
5.060308
-1.943899
5.339122
-1.953882
5.623144
-1.962068
5.905936
-1.964316
6.192221
-1.960020
6.481386
-1.954436
6.771169
-1.941833
7.061233
-1.931128
7.351844
-1.912687
7.644555
7.933898
-1.890784
8.224812
-1.865402
8.512500
-1.840966
8.801231
-1.808575
9.090112
-1.776597
9.372610
-1.740618
9.654668
-1.706105
9.931431
-1.664098
10.208716
-1.621713
10.481242
-1.579966
10.749487
-1.533556
11.013020
-1.488288
11.272683
-1.442342
11.524324
11.770556
-1.393618
-1.345177
12.012504
-1.296200
12.249458
-1.246608
12.478205
-1.195891
12.700511
-1.146132
12.915389
-1.097191
13.119077
-1.047091
13.321059
-0.996757
13.509792
-0.947661
13.690208
-0.900729
13.864041
-0.852857
14.025818
-0.805946
14.181788
-0.758391
14.326327
-0.714380
14.460892
-0.673040
14.584279
-0.630931
14.699753
-0.590602
14.804700
-0.550865
-0.510609
14.896861
-0.476917
14.981197
-0.441929
15.050864
-0.409072
15.111284
-0.379635
15.160985
-0.351372
15.200106
-0.326674
15.226780
-0.298991
15.242305
-0.275683
15.249086
-0.254388
15.241068
-0.237092
15.224986
-0.222528
15.193630
-0.206798
15.155808
-0.196565
15.103695
-0.183721
15.040766
-0.177282
14.968440
-0.172400
14.887656
-0.167171
14.790650
-0.164130
14.686842
-0.165823
14.571585
-0.169118
14.447218
-0.171765
14.314797
-0.178777
14.169647
-0.187850
14.017520
-0.198071
13.857251
-0.210648
13.686143
-0.223752
13.505039
-0.237215
13.321375
-0.254187
13.122903
-0.270651
12.921915
-0.293511
12.710797
-0.314662
12.495895
-0.336945
12.272980
-0.361415
12.044703
-0.383924
11.809859
-0.411473
11.568775
-0.437175
11.323849
-0.465187
11.073580
-0.495607
10.823082
-0.523810
10.564960
-0.554468
10.302349
-0.585183
10.038658
-0.617792
9.772260
-0.651876
9.504734
-0.683599
9.233997
-0.713610
8.961625
-0.746676
8.687669
-0.780729
8.413099
-0.814893
8.139427
-0.847736
7.864085
-0.880645
7.588467
-0.911272
7.316200
-0.940389
7.042022
-0.975908
6.770750
-1.004439
6.501185
-1.035202
6.231058
-1.066102
5.968696
-1.094426
5.703771
-1.124300
5.443116
-1.151000
5.186994
-1.177825
4.932560
-1.202036
4.680935
-1.225376
4.433093
-1.245348
4.192806
-1.267298
3.954212
-1.284607
3.718494
-1.302716
3.489490
-1.319978
3.266888
-1.332887
3.047049
-1.345169
2.830611
-1.355978
2.619883
-1.363968
2.416818
-1.367409
2.219821
-1.369292
2.024187
-1.370323
1.836896
-1.364981
1.655447
-1.360929
1.479831
-1.351668
1.309524
-1.339583
1.143759
-1.326384
0.984305
-1.307858
0.830545
-1.287950
0.687387
-1.263023
0.543569
-1.236439
0.405586
-1.203163
0.276456
-1.165027
0.150928
-1.124992
0.030981
-1.082172
-0.081433
-1.033701
-0.188393
-0.981651
-0.289320
-0.922727
-0.389438
-0.862453
-0.478675
-0.795184
-0.565243
-0.723206
-0.648348
0.096057
-0.216117
0.263184
-0.363729
0.437735
-0.504226
0.616081
-0.637611
0.804322
-0.763890
0.998494
-0.883639
1.200336
-0.993601
1.406825
-1.102898
1.619000
-1.202046
1.837318
-1.293641
2.061439
-1.378111
2.293231
-1.459889
2.529177
-1.534490
2.770498
-1.598471
3.013472
-1.662577
3.265538
-1.713904
3.523741
-1.763075
3.783036
-1.804452
4.046783
-1.841029
4.316382
-1.873515
4.585508
-1.900294
4.861579
-1.921315
5.139066
-1.937588
5.416225
-1.948752
5.702330
-1.954786
5.985718
-1.955632
6.271302
-1.953250
6.557793
-1.948048
6.844608
-1.939263
7.135833
-1.925380
7.422275
-1.908207
7.709359
-1.884422
8.001967
-1.860841
8.285440
-1.835118
8.571893
-1.804760
8.856191
-1.771942
9.136801
-1.736670
9.413414
-1.702469
9.690756
-1.661804
9.961645
-1.621399
10.231261
-1.576199
10.498256
-1.534816
10.755087
-1.489814
11.010436
-1.445015
11.257163
-1.396277
11.499770
-1.347151
11.735631
-1.299748
11.966416
-1.251242
12.189304
-1.204180
12.402828
-1.154904
12.613233
-1.107364
12.813951
-1.057874
13.004909
-1.011021
13.188906
-0.963614
13.361877
-0.917244
13.526346
-0.870093
13.683402
-0.829222
13.827755
-0.783837
13.963579
-0.740085
14.090067
-0.701055
14.204528
-0.659960
14.309634
-0.622268
14.404647
-0.586710
14.485558
-0.552165
14.557267
-0.520747
14.619707
-0.487894
14.668442
-0.458038
14.707551
-0.432412
14.734947
-0.406570
14.750561
-0.382570
14.756121
-0.361948
14.748382
-0.342302
14.728919
-0.325324
14.699249
-0.310135
14.659483
-0.295805
14.606863
-0.286033
14.544281
-0.278087
14.470318
-0.272828
14.386614
-0.265207
14.288823
-0.264384
14.185146
-0.265214
14.067390
-0.264445
13.941161
-0.268918
13.805045
-0.274283
13.658635
-0.283724
13.504271
-0.293926
13.341847
-0.302974
13.169371
-0.316282
12.989303
-0.328639
12.800354
-0.345859
12.604400
-0.362482
12.398137
-0.382643
12.186653
-0.402934
11.970606
-0.423299
11.746513
-0.448483
11.518140
-0.472968
11.280444
-0.496309
11.038418
-0.523579
10.792753
-0.551158
10.543773
-0.580121
10.290338
-0.608831
10.033114
-0.638607
9.772362
-0.668449
9.509203
-0.698280
9.243598
-0.728957
8.974681
-0.761440
8.704858
-0.790787
8.434726
-0.826655
8.162471
-0.856722
7.889096
-0.888346
7.617855
-0.918336
7.346634
-0.951575
7.074663
-0.984690
6.803212
-1.011765
6.533894
-1.043671
6.266118
-1.072299
6.000637
-1.102449
5.737447
-1.128937
5.475862
-1.154819
5.219294
-1.180928
4.965964
-1.206658
4.714063
-1.228626
4.465661
-1.251173
4.222153
-1.271097
3.983228
-1.290968
3.746041
-1.310154
3.515496
-1.325237
3.289636
-1.338542
3.067507
-1.351266
2.852551
-1.361365
2.640764
-1.369820
2.436899
-1.374803
2.235580
-1.377114
2.039093
-1.378191
1.848770
-1.375438
1.669126
-1.370358
1.488437
-1.361825
1.315426
-1.351486
1.147888
-1.337457
0.988384
-1.319092
0.833186
-1.296796
0.685159
-1.273100
0.541888
-1.246264
0.404073
-1.216418
0.272013
-1.178733
0.148237
-1.138586
0.028411
-1.094572
-0.085823
-1.044189
-0.194647
-0.991771
-0.298831
-0.936953
-0.395900
-0.873933
-0.487935
-0.807018
-0.731382
-0.575733
-0.657766
0.029196
-0.159204
0.165952
-0.306946
0.331160
-0.448130
0.506049
-0.584656
0.689827
-0.713710
0.876673
-0.834443
1.065547
1.221575
-0.961208
1.427637
1.324349
-1.060900
1.638318
1.541504
-1.162826
1.753553
1.863977
-1.253753
1.978370
2.094361
-1.325655
2.321681
2.202832
-1.427232
2.435828
2.561015
-1.502953
2.819528
2.675212
-1.573308
2.994687
-1.634911
3.231881
-1.693813
3.487099
-1.753032
3.744589
-1.790221
4.006734
-1.828096
4.273034
-1.863014
4.534621
-1.891942
4.762287
-1.914355
5.099348
-1.934770
5.376521
-1.946660
-1.953745
5.660437
-1.962212
-1.958516
5.944621
-1.958824
-1.961330
6.233434
-1.956515
-1.960279
-1.953563
-1.948943
6.581899
-1.943815
-1.938390
6.846954
-1.933504
-1.924255
7.142526
-1.914871
-1.904469
7.440508
-1.887969
7.821651
-1.862781
8.313282
-1.837727
8.543496
-1.806091
8.771474
-1.773755
9.112548
-1.739030
9.395000
-1.709156
9.672835
-1.663330
9.998933
-1.621005
10.227335
-1.579260
10.488412
-1.525739
10.748037
-1.487442
11.008990
-1.452226
11.263147
11.498875
11.689468
-1.368103
11.929753
11.814022
-1.305979
12.170945
12.049734
-1.254199
12.276582
12.390972
-1.205711
12.494918
12.612032
-1.159688
12.705937
12.817127
-1.101280
12.912088
13.021766
-1.053346
13.108333
13.232617
-1.003749
13.356388
-0.956610
13.523094
-0.909443
13.692430
-0.851604
13.850690
-0.815276
14.002176
-0.770520
14.142271
-0.727638
14.266426
-0.685772
14.369737
-0.646434
14.502090
-0.608803
14.602314
-0.569023
-0.539311
14.689501
-0.523234
-0.505232
14.768439
-0.489793
-0.470441
14.835575
-0.457826
-0.439298
14.904944
-0.425161
-0.408327
14.936409
-0.384565
-0.400583
14.965654
-0.371326
-0.356745
14.987679
-0.331302
-0.348463
14.997881
-0.318189
14.997534
-0.299671
14.986022
-0.282926
14.959484
-0.265788
14.926851
-0.255010
14.879418
-0.243831
14.823306
-0.234720
14.741135
-0.224012
14.672560
-0.218356
14.586475
-0.215619
14.486735
-0.216208
14.376339
-0.214487
14.259716
-0.220811
14.135103
14.048974