# vtk DataFile Version 2.0
Generated volume Mesh
ASCII
DATASET UNSTRUCTURED_GRID
POINTS 1240 float
-0.212153 -0.150304 0.000000
-0.206421 -0.141033 0.000000
-0.215099 -0.146056 0.000000
-0.209122 -0.154492 0.000000
-0.217961 -0.141751 0.000000
-0.206009 -0.158620 0.000000
-0.220736 -0.137389 0.000000
-0.202815 -0.162684 0.000000
-0.223424 -0.132973 0.000000
-0.226023 -0.128505 0.000000
-0.199540 -0.166684 0.000000
-0.228534 -0.123985 0.000000
-0.196187 -0.170619 0.000000
-0.230953 -0.119417 0.000000
-0.192756 -0.174486 0.000000
-0.233282 -0.114802 0.000000
-0.189249 -0.178283 0.000000
-0.235519 -0.110141 0.000000
-0.185666 -0.182011 0.000000
-0.237662 -0.105436 0.000000
-0.182011 -0.185666 0.000000
-0.239711 -0.100690 0.000000
-0.178283 -0.189249 0.000000
-0.241666 -0.095904 0.000000
-0.174486 -0.192756 0.000000
-0.243525 -0.091081 0.000000
-0.170619 -0.196187 0.000000
-0.245288 -0.086221 0.000000
-0.166684 -0.199540 0.000000
-0.246953 -0.081327 0.000000
-0.162684 -0.202815 0.000000
-0.248521 -0.076401 0.000000
-0.158620 -0.206009 0.000000
-0.249991 -0.071445 0.000000
-0.154492 -0.209122 0.000000
-0.251363 -0.066459 0.000000
-0.150304 -0.212153 0.000000
-0.252634 -0.061448 0.000000
-0.146056 -0.215099 0.000000
-0.253806 -0.056412 0.000000
-0.141751 -0.217961 0.000000
-0.137389 -0.220736 0.000000
-0.254878 -0.051354 0.000000
-0.132973 -0.223424 0.000000
-0.255849 -0.046275 0.000000
-0.128505 -0.226023 0.000000
-0.256718 -0.041179 0.000000
-0.123985 -0.228534 0.000000
-0.257486 -0.036067 0.000000
-0.119417 -0.230953 0.000000
-0.258152 -0.030940 0.000000
-0.114802 -0.233282 0.000000
-0.258717 -0.025802 0.000000
-0.110141 -0.235519 0.000000
-0.259178 -0.020654 0.000000
-0.105436 -0.237662 0.000000
-0.259538 -0.015498 0.000000
-0.100690 -0.239711 0.000000
-0.259794 -0.010336 0.000000
-0.095904 -0.241666 0.000000
-0.259949 -0.005169 0.000000
-0.091081 -0.243525 0.000000
-0.260000 0.000000 0.000000
-0.259949 0.005169 0.000000
-0.086221 -0.245288 0.000000
-0.259794 0.010336 0.000000
-0.081327 -0.246953 0.000000
-0.259538 0.015498 0.000000
-0.076401 -0.248521 0.000000
-0.259178 0.020654 0.000000
-0.071445 -0.249991 0.000000
-0.258717 0.025802 0.000000
-0.066459 -0.251363 0.000000
-0.258152 0.030940 0.000000
-0.061448 -0.252634 0.000000
-0.257486 0.036067 0.000000
-0.056412 -0.253806 0.000000
-0.256718 0.041179 0.000000
-0.051354 -0.254878 0.000000
-0.255849 0.046275 0.000000
-0.046275 -0.255849 0.000000
-0.254878 0.051354 0.000000
-0.041179 -0.256718 0.000000
-0.253806 0.056412 0.000000
-0.036067 -0.257486 0.000000
-0.252634 0.061448 0.000000
-0.030940 -0.258152 0.000000
-0.251363 0.066459 0.000000
-0.025802 -0.258717 0.000000
-0.249991 0.071445 0.000000
-0.020654 -0.259178 0.000000
-0.248521 0.076401 0.000000
-0.015498 -0.259538 0.000000
-0.010336 -0.259794 0.000000
-0.246953 0.081327 0.000000
-0.005169 -0.259949 0.000000
-0.245288 0.086221 0.000000
0.000000 -0.260000 0.000000
-0.243525 0.091081 0.000000
0.005169 -0.259949 0.000000
-0.241666 0.095904 0.000000
0.010336 -0.259794 0.000000
-0.239711 0.100690 0.000000
0.015498 -0.259538 0.000000
-0.237662 0.105436 0.000000
0.020654 -0.259178 0.000000
-0.235519 0.110141 0.000000
0.025802 -0.258717 0.000000
-0.233282 0.114802 0.000000
0.030940 -0.258152 0.000000
-0.230953 0.119417 0.000000
0.036067 -0.257486 0.000000
-0.228534 0.123985 0.000000
0.041179 -0.256718 0.000000
-0.226023 0.128505 0.000000
-0.223424 0.132973 0.000000
0.046275 -0.255849 0.000000
-0.220736 0.137389 0.000000
0.051354 -0.254878 0.000000
-0.217961 0.141751 0.000000
0.056412 -0.253806 0.000000
-0.215099 0.146056 0.000000
0.061448 -0.252634 0.000000
-0.212153 0.150304 0.000000
0.066459 -0.251363 0.000000
-0.209122 0.154492 0.000000
0.071445 -0.249991 0.000000
-0.206009 0.158620 0.000000
0.076401 -0.248521 0.000000
-0.202815 0.162684 0.000000
0.081327 -0.246953 0.000000
-0.199540 0.166684 0.000000
0.086221 -0.245288 0.000000
-0.196187 0.170619 0.000000
0.091081 -0.243525 0.000000
-0.192756 0.174486 0.000000
0.095904 -0.241666 0.000000
-0.189249 0.178283 0.000000
0.100690 -0.239711 0.000000
-0.185666 0.182011 0.000000
0.105436 -0.237662 0.000000
-0.182011 0.185666 0.000000
0.110141 -0.235519 0.000000
-0.178283 0.189249 0.000000
0.114802 -0.233282 0.000000
-0.174486 0.192756 0.000000
0.119417 -0.230953 0.000000
0.123985 -0.228534 0.000000
-0.170619 0.196187 0.000000
0.128505 -0.226023 0.000000
-0.166684 0.199540 0.000000
0.132973 -0.223424 0.000000
-0.162684 0.202815 0.000000
0.137389 -0.220736 0.000000
-0.158620 0.206009 0.000000
0.141751 -0.217961 0.000000
-0.154492 0.209122 0.000000
0.146056 -0.215099 0.000000
-0.150304 0.212153 0.000000
0.150304 -0.212153 0.000000
-0.146056 0.215099 0.000000
0.154492 -0.209122 0.000000
-0.141751 0.217961 0.000000
0.158620 -0.206009 0.000000
-0.137389 0.220736 0.000000
0.162684 -0.202815 0.000000
-0.132973 0.223424 0.000000
-0.128505 0.226023 0.000000
0.166684 -0.199540 0.000000
-0.123985 0.228534 0.000000
0.170619 -0.196187 0.000000
-0.119417 0.230953 0.000000
0.174486 -0.192756 0.000000
-0.114802 0.233282 0.000000
0.178283 -0.189249 0.000000
-0.110141 0.235519 0.000000
0.182011 -0.185666 0.000000
-0.105436 0.237662 0.000000
0.185666 -0.182011 0.000000
-0.100690 0.239711 0.000000
0.189249 -0.178283 0.000000
-0.095904 0.241666 0.000000
0.192756 -0.174486 0.000000
-0.091081 0.243525 0.000000
0.196187 -0.170619 0.000000
-0.086221 0.245288 0.000000
0.199540 -0.166684 0.000000
-0.081327 0.246953 0.000000
0.202815 -0.162684 0.000000
-0.076401 0.248521 0.000000
0.206009 -0.158620 0.000000
-0.071445 0.249991 0.000000
0.209122 -0.154492 0.000000
-0.066459 0.251363 0.000000
0.212153 -0.150304 0.000000
-0.061448 0.252634 0.000000
0.215099 -0.146056 0.000000
-0.056412 0.253806 0.000000
0.217961 -0.141751 0.000000
0.220736 -0.137389 0.000000
-0.051354 0.254878 0.000000
0.223424 -0.132973 0.000000
-0.046275 0.255849 0.000000
0.226023 -0.128505 0.000000
-0.041179 0.256718 0.000000
0.228534 -0.123985 0.000000
-0.036067 0.257486 0.000000
0.230953 -0.119417 0.000000
-0.030940 0.258152 0.000000
0.233282 -0.114802 0.000000
-0.025802 0.258717 0.000000
0.235519 -0.110141 0.000000
-0.020654 0.259178 0.000000
0.237662 -0.105436 0.000000
-0.015498 0.259538 0.000000
0.239711 -0.100690 0.000000
-0.010336 0.259794 0.000000
0.241666 -0.095904 0.000000
-0.005169 0.259949 0.000000
0.243525 -0.091081 0.000000
0.000000 0.260000 0.000000
0.245288 -0.086221 0.000000
0.005169 0.259949 0.000000
0.246953 -0.081327 0.000000
0.010336 0.259794 0.000000
0.248521 -0.076401 0.000000
0.015498 0.259538 0.000000
0.249991 -0.071445 0.000000
0.020654 0.259178 0.000000
0.251363 -0.066459 0.000000
0.025802 0.258717 0.000000
0.252634 -0.061448 0.000000
0.030940 0.258152 0.000000
0.253806 -0.056412 0.000000
0.036067 0.257486 0.000000
0.254878 -0.051354 0.000000
0.041179 0.256718 0.000000
0.255849 -0.046275 0.000000
0.046275 0.255849 0.000000
0.256718 -0.041179 0.000000
0.051354 0.254878 0.000000
0.257486 -0.036067 0.000000
0.056412 0.253806 0.000000
0.258152 -0.030940 0.000000
0.061448 0.252634 0.000000
0.258717 -0.025802 0.000000
0.066459 0.251363 0.000000
0.259178 -0.020654 0.000000
0.071445 0.249991 0.000000
0.259538 -0.015498 0.000000
0.076401 0.248521 0.000000
0.259794 -0.010336 0.000000
0.081327 0.246953 0.000000
0.259949 -0.005169 0.000000
0.086221 0.245288 0.000000
0.260000 0.000000 0.000000
0.091081 0.243525 0.000000
0.259949 0.005169 0.000000
0.095904 0.241666 0.000000
0.259794 0.010336 0.000000
0.100690 0.239711 0.000000
0.259538 0.015498 0.000000
0.105436 0.237662 0.000000
0.259178 0.020654 0.000000
0.110141 0.235519 0.000000
0.258717 0.025802 0.000000
0.114802 0.233282 0.000000
0.258152 0.030940 0.000000
0.119417 0.230953 0.000000
0.257486 0.036067 0.000000
0.123985 0.228534 0.000000
0.256718 0.041179 0.000000
0.128505 0.226023 0.000000
0.255849 0.046275 0.000000
0.132973 0.223424 0.000000
0.254878 0.051354 0.000000
0.137389 0.220736 0.000000
0.253806 0.056412 0.000000
0.141751 0.217961 0.000000
0.252634 0.061448 0.000000
0.146056 0.215099 0.000000
0.251363 0.066459 0.000000
0.150304 0.212153 0.000000
0.249991 0.071445 0.000000
0.154492 0.209122 0.000000
0.248521 0.076401 0.000000
0.158620 0.206009 0.000000
0.246953 0.081327 0.000000
0.162684 0.202815 0.000000
0.245288 0.086221 0.000000
0.166684 0.199540 0.000000
0.243525 0.091081 0.000000
0.170619 0.196187 0.000000
0.241666 0.095904 0.000000
0.174486 0.192756 0.000000
0.239711 0.100690 0.000000
0.178283 0.189249 0.000000
0.237662 0.105436 0.000000
0.182011 0.185666 0.000000
0.235519 0.110141 0.000000
0.185666 0.182011 0.000000
0.233282 0.114802 0.000000
0.189249 0.178283 0.000000
0.230953 0.119417 0.000000
0.192756 0.174486 0.000000
0.228534 0.123985 0.000000
0.196187 0.170619 0.000000
0.226023 0.128505 0.000000
0.199540 0.166684 0.000000
0.223424 0.132973 0.000000
0.202815 0.162684 0.000000
0.220736 0.137389 0.000000
0.206009 0.158620 0.000000
0.217961 0.141751 0.000000
0.209122 0.154492 0.000000
0.215099 0.146056 0.000000
0.212153 0.150304 0.000000
-0.203462 -0.145269 0.000000
-0.209292 -0.136737 0.000000
-0.200416 -0.149443 0.000000
-0.212073 -0.132382 0.000000
-0.197285 -0.153553 0.000000
-0.214764 -0.127971 0.000000
-0.194070 -0.157598 0.000000
-0.217362 -0.123505 0.000000
-0.190771 -0.161575 0.000000
-0.219868 -0.118987 0.000000
-0.187391 -0.165483 0.000000
-0.222281 -0.114417 0.000000
-0.183931 -0.169320 0.000000
-0.224598 -0.109799 0.000000
-0.180392 -0.173086 0.000000
-0.226819 -0.105134 0.000000
-0.176777 -0.176777 0.000000
-0.228943 -0.100424 0.000000
-0.173086 -0.180392 0.000000
-0.230970 -0.095671 0.000000
-0.169320 -0.183931 0.000000
-0.232898 -0.090877 0.000000
-0.165483 -0.187391 0.000000
-0.234726 -0.086044 0.000000
-0.161575 -0.190771 0.000000
-0.236454 -0.081175 0.000000
-0.157598 -0.194070 0.000000
-0.238081 -0.076271 0.000000
-0.153553 -0.197285 0.000000
-0.239607 -0.071334 0.000000
-0.149443 -0.200416 0.000000
-0.241030 -0.066366 0.000000
-0.145269 -0.203462 0.000000
-0.242350 -0.061370 0.000000
-0.141033 -0.206421 0.000000
[...]
POINT_DATA 1240
SCALARS u1 float
LOOKUP_TABLE default
-7e-05
-6e-05
-7e-05
-8e-05
-6e-05
-8e-05
-6e-05
-9e-05
-6e-05
-6e-05
-9e-05
-6e-05
-0.0001
-6e-05
-0.0001
-6e-05
-0.0001
-6e-05
-0.0001
-7e-05
-9e-05
-7e-05
-9e-05
-8e-05
-8e-05
-8e-05
-8e-05
-9e-05
-7e-05
-0.0001
-6e-05
-0.0001
-6e-05
-0.0001
-5e-05
-0.0001
-4e-05
-0.0001
-4e-05
-0.0002
-3e-05
-3e-05
-0.0002
-3e-05
-0.0002
-3e-05
-0.0002
-3e-05
-0.0002
-3e-05
-0.0002
-3e-05
-0.0002
-3e-05
-0.0002
-3e-05
-0.0003
-3e-05
-0.0003
-3e-05
-0.0003
-3e-05
-0.0003
-0.0003
-3e-05
-0.0003
-3e-05
-0.0003
-3e-05
-0.0002
-4e-05
-0.0002
-4e-05
-0.0002
-4e-05
-0.0002
-4e-05
-0.0002
-4e-05
-0.0002
-4e-05
-0.0002
-4e-05
-0.0002
-4e-05
-0.0001
-4e-05
-0.0001
-4e-05
-0.0001
-3e-05
-0.0001
-3e-05
-3e-05
-0.0001
-2e-05
-0.0001
-2e-05
-9e-05
-2e-05
-9e-05
-1e-05
-8e-05
-9e-06
-8e-05
-6e-06
-7e-05
-3e-06
-7e-05
-7e-07
-7e-05
1e-06
-7e-05
2e-06
-7e-05
-7e-05
3e-06
-7e-05
2e-06
-7e-05
1e-06
-8e-05
-4e-07
-8e-05
-3e-06
-9e-05
-5e-06
-0.0001
-8e-06
-0.0001
-1e-05
-0.0001
-1e-05
-0.0001
-1e-05
-0.0001
-1e-05
-0.0001
-2e-05
-0.0001
-2e-05
-0.0001
-2e-05
-0.0001
-2e-05
-0.0001
-2e-05
-2e-05
-9e-05
-2e-05
-9e-05
-1e-05
-8e-05
-1e-05
-7e-05
-1e-05
-7e-05
-6e-06
-6e-05
-1e-06
-6e-05
5e-06
-5e-05
1e-05
-5e-05
2e-05
-5e-05
-5e-05
3e-05
-5e-05
3e-05
-5e-05
4e-05
-5e-05
4e-05
-5e-05
5e-05
-5e-05
5e-05
-5e-05
5e-05
-5e-05
5e-05
-5e-05
5e-05
-5e-05
5e-05
-5e-05
4e-05
-5e-05
3e-05
-6e-05
3e-05
-6e-05
2e-05
-6e-05
2e-05
-6e-05
1e-05
8e-06
-6e-05
6e-06
-6e-05
5e-06
-6e-05
5e-06
-6e-05
7e-06
-6e-05
9e-06
-6e-05
1e-05
-6e-05
1e-05
-5e-05
2e-05
-5e-05
2e-05
-5e-05
3e-05
-4e-05
3e-05
-4e-05
4e-05
-3e-05
5e-05
-3e-05
6e-05
-3e-05
7e-05
-3e-05
9e-05
-2e-05
0.0001
-2e-05
0.0001
-2e-05
0.0001
-2e-05
0.0001
-2e-05
0.0002
-2e-05
0.0002
-2e-05
0.0002
-2e-05
0.0002
-3e-05
0.0002
-3e-05
0.0002
-3e-05
0.0002
-3e-05
0.0002
-3e-05
0.0002
-4e-05
0.0002
-4e-05
0.0002
-4e-05
0.0002
-4e-05
0.0002
-4e-05
0.0002
-4e-05
0.0002
-4e-05
0.0001
-3e-05
0.0001
-3e-05
0.0001
-3e-05
0.0001
-3e-05
8e-05
-2e-05
7e-05
-2e-05
6e-05
-1e-05
4e-05
-7e-06
4e-05
5e-07
3e-05
8e-06
2e-05
2e-05
1e-05
2e-05
1e-05
3e-05
6e-06
3e-05
2e-06
3e-05
-1e-06
4e-05
-4e-06
4e-05
-5e-06
3e-05
-6e-06
3e-05
-5e-06
3e-05
-3e-06
2e-05
-3e-07
2e-05
4e-06
9e-06
-7e-05
-6e-05
-7e-05
-6e-05
-8e-05
-6e-05
-8e-05
-6e-05
-9e-05
-6e-05
-9e-05
-6e-05
-9e-05
-7e-05
-0.0001
-7e-05
-0.0001
-7e-05
-0.0001
-8e-05
-9e-05
-8e-05
-9e-05
-9e-05
-8e-05
-0.0001
-8e-05
-0.0001
-7e-05
-0.0001
-6e-05
-0.0001
-6e-05
-0.0001
-5e-05
-0.0002
-4e-05
-0.0002
-4e-05
-0.0002
-3e-05
-0.0002
-3e-05
-0.0002
-3e-05
-0.0002
-2e-05
-0.0002
-2e-05
-0.0002
-2e-05
-0.0003
-2e-05
-0.0003
-2e-05
-0.0003
-2e-05
-0.0003
-2e-05
-0.0003
-2e-05
-0.0003
-2e-05
-0.0003
-1e-05
-0.0002
-1e-05
-0.0002
-2e-05
-0.0002
-2e-05
-0.0002
-2e-05
-0.0002
-2e-05
-0.0002
-2e-05
-0.0002
-2e-05
-0.0002
-2e-05
-0.0002
-2e-05
-0.0001
-2e-05
-0.0001
-2e-05
-0.0001
-2e-05
-0.0001
-2e-05
-0.0001
-2e-05
-9e-05
-2e-05
-9e-05
-2e-05
-8e-05
-2e-05
-8e-05
-2e-05
-8e-05
-2e-05
-7e-05
-2e-05
-7e-05
-2e-05
-7e-05
-2e-05
-7e-05
-2e-05
-7e-05
-2e-05
-7e-05
-3e-05
-7e-05
-3e-05
-8e-05
-3e-05
-8e-05
-3e-05
-9e-05
-3e-05
-0.0001
-3e-05
-0.0001
-3e-05
-0.0001
-2e-05
-0.0001
-2e-05
-0.0001
-2e-05
-0.0001
-2e-05
-0.0001
-2e-05
-0.0001
-2e-05
-0.0001
-2e-05
-0.0001
-1e-05
-0.0001
-1e-05
-9e-05
-6e-06
-8e-05
-3e-07
-7e-05
6e-06
-7e-05
1e-05
-6e-05
2e-05
-6e-05
3e-05
-5e-05
3e-05
-5e-05
4e-05
-5e-05
4e-05
-4e-05
5e-05
-4e-05
5e-05
-4e-05
5e-05
-4e-05
5e-05
-4e-05
5e-05
-4e-05
4e-05
-4e-05
4e-05
-4e-05
3e-05
-4e-05
3e-05
-4e-05
2e-05
-4e-05
2e-05
-4e-05
1e-05
-4e-05
8e-06
-4e-05
6e-06
-4e-05
5e-06
-4e-05
6e-06
-4e-05
7e-06
-4e-05
1e-05
-4e-05
1e-05
-4e-05
2e-05
-4e-05
2e-05
-4e-05
2e-05
-4e-05
3e-05
-4e-05
4e-05
-4e-05
4e-05
-4e-05
5e-05
-4e-05
6e-05
-4e-05
8e-05
-4e-05
9e-05
-4e-05
0.0001
-4e-05
0.0001
-4e-05
0.0001
-4e-05
0.0001
-5e-05
0.0002
-5e-05
0.0002
-5e-05
0.0002
-5e-05
0.0002
-5e-05
0.0002
-5e-05
0.0002
-5e-05
0.0002
-5e-05
0.0002
-4e-05
0.0002
-4e-05
0.0002
-4e-05
0.0002
-4e-05
0.0002
-4e-05
0.0002
-4e-05
0.0002
-4e-05
0.0002
-3e-05
0.0001
-3e-05
0.0001
-2e-05
0.0001
-2e-05
0.0001
-1e-05
8e-05
-5e-06
7e-05
2e-06
6e-05
9e-06
5e-05
2e-05
4e-05
2e-05
3e-05
3e-05
2e-05
3e-05
2e-05
3e-05
1e-05
4e-05
7e-06
3e-05
3e-06
3e-05
-2e-07
3e-05
-3e-06
3e-05
-5e-06
2e-05
-6e-06
1e-05
-5e-06
8e-06
-4e-06
-7e-07
3e-06
-7e-05
-7e-05
-7e-05
-6e-05
-6e-05
-7e-05
-8e-05
-6e-05
-6e-05
-8e-05
-8e-05
-6e-05
-6e-05
-8e-05
-9e-05
-6e-05
-6e-05
-6e-05
-9e-05
-9e-05
-6e-05
-6e-05
-9e-05
-0.0001
-6e-05
-6e-05
-9e-05
-0.0001
-6e-05
-6e-05
-0.0001
-0.0001
-7e-05
-7e-05
-0.0001
-0.0001
-7e-05
-7e-05
-0.0001
-9e-05
-7e-05
-8e-05
-9e-05
-9e-05
-8e-05
-8e-05
-9e-05
-8e-05
-9e-05
-9e-05
-8e-05
-8e-05
-9e-05
-9e-05
-8e-05
-7e-05
-0.0001
-0.0001
-7e-05
-6e-05
-0.0001
-0.0001
-6e-05
-6e-05
-0.0001
-0.0001
-6e-05
-5e-05
-0.0001
-0.0001
-5e-05
-4e-05
-0.0001
-0.0002
-4e-05
-4e-05
-0.0002
-0.0002
-4e-05
-3e-05
-3e-05
-0.0002
-0.0002
-3e-05
-3e-05
-0.0002
-0.0002
-3e-05
-3e-05
-0.0002
-0.0002
-3e-05
-3e-05
-0.0002
-0.0002
-3e-05
-3e-05
-0.0002
-0.0002
-2e-05
-2e-05
-0.0002
-0.0002
-2e-05
-2e-05
-0.0002
-0.0002
-2e-05
-2e-05
-0.0003
-0.0003
-2e-05
-2e-05
-0.0003
-0.0003
-2e-05
-2e-05
-0.0003
-0.0003
-2e-05
-2e-05
-0.0003
-0.0003
-0.0003
-2e-05
-2e-05
-0.0003
-0.0003
-2e-05
-3e-05
-0.0003
-0.0003
-2e-05
-3e-05
-0.0003
-0.0002
-2e-05
-3e-05
-0.0002
-0.0002
-2e-05
-3e-05
-0.0002
-0.0002
-2e-05
-3e-05
-0.0002
-0.0002
-2e-05
-3e-05
-0.0002
-0.0002
-3e-05
-3e-05
-0.0002
-0.0002
-3e-05
-3e-05
-0.0002
-0.0002
-3e-05
-3e-05
-0.0002
-0.0002
-3e-05
-3e-05
-0.0002
-0.0001
-3e-05
-3e-05
-0.0001
-0.0001
-3e-05
-3e-05
-0.0001
-0.0001
-2e-05
-3e-05
-0.0001
-0.0001
-2e-05
-3e-05
-2e-05
-0.0001
-0.0001
-2e-05
-2e-05
-0.0001
-9e-05
-2e-05
-2e-05
-9e-05
-9e-05
-2e-05
-2e-05
-9e-05
-8e-05
-2e-05
-1e-05
-8e-05
-8e-05
-2e-05
-1e-05
-8e-05
-8e-05
-2e-05
-1e-05
-8e-05
-7e-05
-1e-05
-8e-06
-7e-05
-7e-05
-1e-05
-7e-06
-7e-05
-7e-05
-1e-05
-6e-06
-7e-05
-7e-05
-1e-05
-6e-06
-7e-05
-7e-05
-7e-05
-1e-05
-6e-06
-7e-05
-7e-05
-2e-05
-7e-06
-7e-05
-7e-05
-2e-05
-8e-06
-7e-05
-8e-05
-2e-05
-1e-05
-8e-05
-8e-05
-2e-05
-1e-05
-8e-05
-9e-05
-2e-05
-1e-05
-9e-05
-0.0001
-2e-05
-1e-05
-0.0001
-0.0001
-2e-05
-2e-05
-0.0001
-0.0001
-2e-05
-2e-05
-0.0001
-0.0001
-2e-05
-2e-05
-0.0001
-0.0001
-2e-05
-2e-05
-0.0001
-0.0001
-2e-05
-2e-05
-0.0001
-0.0001
-2e-05
-2e-05
-0.0001
-0.0001
-2e-05
-2e-05
-0.0001
-0.0001
-2e-05
-2e-05
-0.0001
-0.0001
-2e-05
-2e-05
-2e-05
-0.0001
-9e-05
-2e-05
-1e-05
-9e-05
-9e-05
-1e-05
-1e-05
-9e-05
-8e-05
-9e-06
-9e-06
-8e-05
-7e-05
-5e-06
-5e-06
-7e-05
-7e-05
-3e-07
-5e-07
-7e-05
-6e-05
6e-06
5e-06
-6e-05
-6e-05
1e-05
1e-05
-6e-05
-5e-05
2e-05
2e-05
-5e-05
-5e-05
3e-05
3e-05
-5e-05
-5e-05
-5e-05
3e-05
3e-05
-5e-05
-5e-05
4e-05
4e-05
-5e-05
-5e-05
4e-05
4e-05
-4e-05
-4e-05
5e-05
5e-05
-4e-05
-4e-05
5e-05
5e-05
-4e-05
-4e-05
5e-05
5e-05
-4e-05
-4e-05
5e-05
5e-05
-4e-05
-4e-05
5e-05
5e-05
-4e-05
-4e-05
4e-05
4e-05
-4e-05
-5e-05
4e-05
4e-05
-4e-05
-5e-05
3e-05
3e-05
-4e-05
-5e-05
3e-05
3e-05
-4e-05
-5e-05
2e-05
2e-05
-4e-05
-5e-05
2e-05
2e-05
-4e-05
-5e-05
1e-05
1e-05
-5e-05
-6e-05
8e-06
8e-06
7e-06
-5e-05
-6e-05
6e-06
5e-06
-5e-05
-6e-05
5e-06
5e-06
-5e-05
-6e-05
6e-06
6e-06
-5e-05
-6e-05
8e-06
8e-06
-5e-05
-5e-05
1e-05
1e-05
-5e-05
-5e-05
1e-05
1e-05
-5e-05
-5e-05
2e-05
2e-05
-5e-05
-5e-05
2e-05
2e-05
-4e-05
-5e-05
3e-05
3e-05
-4e-05
-4e-05
3e-05
3e-05
-4e-05
-4e-05
-4e-05
4e-05
4e-05
-4e-05
-4e-05
5e-05
5e-05
-4e-05
-3e-05
6e-05
6e-05
-4e-05
-3e-05
7e-05
7e-05
-4e-05
-3e-05
8e-05
8e-05
-4e-05
-3e-05
9e-05
0.0001
-4e-05
-3e-05
0.0001
0.0001
-4e-05
-3e-05
0.0001
0.0001
-4e-05
-3e-05
0.0001
0.0001
-4e-05
-3e-05
0.0001
0.0002
-4e-05
-3e-05
0.0002
0.0002
-4e-05
-3e-05
0.0002
0.0002
-4e-05
-3e-05
0.0002
0.0002
-4e-05
-3e-05
0.0002
0.0002
-4e-05
-4e-05
0.0002
0.0002
0.0002
-4e-05
-4e-05
0.0002
0.0002
-4e-05
-4e-05
0.0002
0.0002
-4e-05
-4e-05
0.0002
0.0002
-4e-05
-4e-05
0.0002
0.0002
-4e-05
-4e-05
0.0002
0.0002
-4e-05
-4e-05
0.0002
0.0002
-4e-05
-4e-05
0.0002
0.0002
-4e-05
-4e-05
0.0002
0.0002
-4e-05
-4e-05
0.0002
0.0001
-3e-05
-3e-05
0.0001
0.0001
-3e-05
-3e-05
0.0001
0.0001
-3e-05
-3e-05
0.0001
0.0001
-2e-05
-3e-05
0.0001
9e-05
-2e-05
-2e-05
9e-05
8e-05
-1e-05
-2e-05
7e-05
6e-05
-6e-06
-1e-05
6e-05
5e-05
1e-06
-6e-06
5e-05
4e-05
9e-06
1e-06
4e-05
3e-05
2e-05
8e-06
3e-05
3e-05
2e-05
2e-05
2e-05
2e-05
3e-05
2e-05
2e-05
1e-05
3e-05
3e-05
1e-05
9e-06
3e-05
3e-05
8e-06
5e-06
4e-05
3e-05
4e-06
1e-06
3e-05
4e-05
4e-07
-2e-06
3e-05
4e-05
-3e-06
-4e-06
3e-05
3e-05
-5e-06
-6e-06
3e-05
3e-05
-6e-06
-6e-06
2e-05
3e-05
-6e-06
-6e-06
1e-05
2e-05
-4e-06
-4e-06
9e-06
-6e-07
4e-06
1e-05
-5e-07
9e-06
4e-06
SCALARS u2 float
LOOKUP_TABLE default
-2e-05
-2e-05
-1e-05
-2e-05
-8e-06
-3e-05
-6e-06
-4e-05
-4e-06
-3e-06
-4e-05
-2e-06
-5e-05
-2e-06
-6e-05
-2e-06
-6e-05
-2e-06
-7e-05
-2e-06
-7e-05
-2e-06
-7e-05
-3e-06
-7e-05
-4e-06
-7e-05
-6e-06
-6e-05
-8e-06
-6e-05
-1e-05
-5e-05
-1e-05
-5e-05
-2e-05
-4e-05
-2e-05
-3e-05
-2e-05
-3e-05
-3e-05
-2e-05
-2e-05
-2e-05
-2e-05
-2e-05
-2e-05
-2e-05
-2e-05
-2e-05
-3e-05
-1e-05
-3e-05
-1e-05
-3e-05
-9e-06
-4e-05
-6e-06
-4e-05
-2e-06
-5e-05
2e-06
6e-06
-5e-05
9e-06
-6e-05
1e-05
-7e-05
2e-05
-8e-05
2e-05
-9e-05
2e-05
-0.0001
2e-05
-0.0001
2e-05
-0.0001
2e-05
-0.0001
2e-05
-0.0002
2e-05
-0.0002
2e-05
-0.0002
2e-05
-0.0002
2e-05
-0.0002
1e-05
-0.0002
-0.0002
1e-05
-0.0002
1e-05
-0.0002
9e-06
-0.0002
8e-06
-0.0002
8e-06
-0.0002
7e-06
-0.0002
7e-06
-0.0002
8e-06
-0.0002
8e-06
-0.0002
8e-06
-0.0002
9e-06
1e-05
-0.0001
1e-05
-0.0001
2e-05
-0.0001
2e-05
-0.0001
2e-05
-9e-05
3e-05
-7e-05
4e-05
-6e-05
4e-05
-5e-05
5e-05
-5e-05
6e-05
-4e-05
7e-05
-3e-05
7e-05
-3e-05
8e-05
-2e-05
8e-05
-2e-05
8e-05
-2e-05
8e-05
-1e-05
-1e-05
8e-05
-1e-05
7e-05
-1e-05
7e-05
-1e-05
6e-05
-2e-05
6e-05
-2e-05
5e-05
-3e-05
5e-05
-3e-05
4e-05
-4e-05
4e-05
-4e-05
4e-05
4e-05
-5e-05
4e-05
-5e-05
4e-05
-5e-05
4e-05
-5e-05
5e-05
-5e-05
5e-05
-5e-05
5e-05
-5e-05
6e-05
-4e-05
6e-05
-3e-05
7e-05
-3e-05
8e-05
-2e-05
9e-05
-1e-05
0.0001
-5e-06
0.0001
1e-06
0.0001
6e-06
0.0001
1e-05
1e-05
0.0002
2e-05
0.0002
2e-05
0.0002
2e-05
0.0002
2e-05
0.0002
2e-05
0.0002
2e-05
0.0002
2e-05
0.0002
2e-05
0.0002
2e-05
0.0002
2e-05
0.0002
2e-05
0.0002
1e-05
0.0002
1e-05
0.0002
9e-06
0.0002
6e-06
0.0002
4e-06
0.0002
2e-06
0.0002
1e-06
0.0002
1e-06
0.0002
2e-06
0.0002
3e-06
0.0001
5e-06
0.0001
7e-06
0.0001
1e-05
0.0001
1e-05
0.0001
2e-05
9e-05
2e-05
8e-05
2e-05
7e-05
3e-05
7e-05
3e-05
6e-05
4e-05
6e-05
4e-05
6e-05
4e-05
5e-05
4e-05
5e-05
5e-05
5e-05
5e-05
5e-05
5e-05
5e-05
5e-05
5e-05
5e-05
6e-05
4e-05
6e-05
4e-05
7e-05
4e-05
7e-05
4e-05
8e-05
3e-05
8e-05
3e-05
9e-05
3e-05
9e-05
3e-05
9e-05
3e-05
0.0001
3e-05
9e-05
3e-05
9e-05
3e-05
9e-05
3e-05
8e-05
3e-05
8e-05
3e-05
7e-05
3e-05
6e-05
3e-05
5e-05
3e-05
5e-05
4e-05
4e-05
-3e-05
-2e-05
-4e-05
-1e-05
-4e-05
-8e-06
-5e-05
-4e-06
-6e-05
-2e-06
-6e-05
3e-07
-7e-05
2e-06
-7e-05
3e-06
-7e-05
4e-06
-7e-05
5e-06
-7e-05
6e-06
-6e-05
7e-06
-6e-05
8e-06
-5e-05
8e-06
-5e-05
8e-06
-4e-05
8e-06
-3e-05
8e-06
-3e-05
7e-06
-3e-05
6e-06
-2e-05
5e-06
-2e-05
4e-06
-2e-05
3e-06
-3e-05
2e-06
-3e-05
2e-06
-3e-05
2e-06
-3e-05
2e-06
-4e-05
2e-06
-4e-05
2e-06
-5e-05
2e-06
-5e-05
2e-06
-6e-05
3e-06
-7e-05
3e-06
-8e-05
3e-06
-9e-05
3e-06
-0.0001
2e-06
-0.0001
1e-06
-0.0001
3e-07
-0.0001
-6e-07
-0.0002
-2e-06
-0.0002
-2e-06
-0.0002
-3e-06
-0.0002
-3e-06
-0.0002
-3e-06
-0.0002
-3e-06
-0.0002
-2e-06
-0.0002
-1e-06
-0.0002
-2e-07
-0.0002
9e-07
-0.0002
2e-06
-0.0002
3e-06
-0.0002
5e-06
-0.0002
7e-06
-0.0002
9e-06
-0.0002
1e-05
-0.0002
2e-05
-0.0001
2e-05
-0.0001
3e-05
-0.0001
3e-05
-0.0001
4e-05
-9e-05
5e-05
-8e-05
5e-05
-6e-05
6e-05
-5e-05
7e-05
-5e-05
7e-05
-4e-05
8e-05
-3e-05
8e-05
-3e-05
8e-05
-3e-05
8e-05
-2e-05
8e-05
-2e-05
7e-05
-2e-05
7e-05
-1e-05
6e-05
-1e-05
6e-05
-1e-05
5e-05
-1e-05
5e-05
-2e-05
4e-05
-2e-05
4e-05
-3e-05
4e-05
-3e-05
4e-05
-4e-05
4e-05
-4e-05
4e-05
-5e-05
4e-05
-5e-05
5e-05
-5e-05
5e-05
-5e-05
5e-05
-5e-05
6e-05
-5e-05
7e-05
-5e-05
7e-05
-4e-05
8e-05
-3e-05
9e-05
-3e-05
0.0001
-2e-05
0.0001
-1e-05
0.0001
-6e-06
0.0001
3e-07
0.0002
6e-06
0.0002
1e-05
0.0002
1e-05
0.0002
2e-05
0.0002
2e-05
0.0002
2e-05
0.0002
2e-05
0.0002
2e-05
0.0002
3e-05
0.0002
3e-05
0.0002
3e-05
0.0002
3e-05
0.0002
3e-05
0.0002
3e-05
0.0002
3e-05
0.0002
3e-05
0.0002
3e-05
0.0002
3e-05
0.0002
3e-05
0.0002
3e-05
0.0002
2e-05
0.0001
2e-05
0.0001
2e-05
0.0001
2e-05
0.0001
2e-05
0.0001
2e-05
9e-05
2e-05
8e-05
2e-05
7e-05
2e-05
7e-05
2e-05
6e-05
2e-05
6e-05
2e-05
6e-05
2e-05
5e-05
2e-05
5e-05
2e-05
5e-05
2e-05
5e-05
2e-05
5e-05
2e-05
5e-05
2e-05
6e-05
2e-05
6e-05
2e-05
7e-05
2e-05
7e-05
2e-05
8e-05
2e-05
8e-05
2e-05
9e-05
2e-05
9e-05
2e-05
9e-05
2e-05
9e-05
2e-05
9e-05
2e-05
9e-05
3e-05
9e-05
3e-05
8e-05
3e-05
8e-05
3e-05
7e-05
4e-05
6e-05
4e-05
5e-05
6e-05
-2e-05
-2e-05
-2e-05
-2e-05
-1e-05
-3e-05
-3e-05
-1e-05
-9e-06
-4e-05
-4e-05
-9e-06
-6e-06
-4e-05
-4e-05
-5e-06
-4e-06
-3e-06
-5e-05
-5e-05
-3e-06
-2e-06
-6e-05
-6e-05
-1e-06
-1e-06
-6e-05
-6e-05
1e-07
-5e-07
-7e-05
-7e-05
1e-06
-3e-08
-7e-05
-7e-05
2e-06
1e-07
-7e-05
-7e-05
3e-06
8e-08
-7e-05
-7e-05
3e-06
-2e-07
-7e-05
-7e-05
3e-06
-8e-07
-6e-05
-6e-05
3e-06
-2e-06
-6e-05
-6e-05
3e-06
-3e-06
-5e-05
-5e-05
2e-06
-5e-06
-5e-05
-5e-05
1e-06
-7e-06
-4e-05
-4e-05
4e-07
-8e-06
-3e-05
-3e-05
-7e-07
-1e-05
-3e-05
-3e-05
-2e-06
-1e-05
-3e-05
-3e-05
-2e-05
-3e-06
-1e-05
-2e-05
-2e-05
-4e-06
-1e-05
-2e-05
-2e-05
-4e-06
-1e-05
-2e-05
-2e-05
-4e-06
-1e-05
-3e-05
-3e-05
-4e-06
-1e-05
-3e-05
-3e-05
-4e-06
-8e-06
-3e-05
-3e-05
-3e-06
-6e-06
-3e-05
-4e-05
-2e-06
-4e-06
-4e-05
-4e-05
-3e-07
-2e-06
-4e-05
-4e-05
1e-06
1e-06
-5e-05
-5e-05
4e-06
3e-06
6e-06
-6e-05
-6e-05
4e-06
8e-06
-6e-05
-7e-05
5e-06
1e-05
-7e-05
-8e-05
7e-06
1e-05
-8e-05
-9e-05
8e-06
1e-05
-0.0001
-0.0001
8e-06
2e-05
-0.0001
-0.0001
9e-06
2e-05
-0.0001
-0.0001
9e-06
2e-05
-0.0001
-0.0001
8e-06
2e-05
-0.0002
-0.0002
7e-06
2e-05
-0.0002
-0.0002
6e-06
1e-05
-0.0002
-0.0002
5e-06
1e-05
-0.0002
-0.0002
4e-06
1e-05
-0.0002
-0.0002
3e-06
9e-06
-0.0002
-0.0002
3e-06
8e-06
-0.0002
-0.0002
-0.0002
2e-06
7e-06
-0.0002
-0.0002
2e-06
6e-06
-0.0002
-0.0002
2e-06
6e-06
-0.0002
-0.0002
3e-06
5e-06
-0.0002
-0.0002
3e-06
6e-06
-0.0002
-0.0002
4e-06
6e-06
-0.0002
-0.0002
5e-06
7e-06
-0.0002
-0.0002
6e-06
7e-06
-0.0002
-0.0002
8e-06
8e-06
-0.0002
-0.0002
9e-06
9e-06
-0.0002
-0.0002
1e-05
1e-05
1e-05
-0.0001
-0.0001
2e-05
2e-05
-0.0001
-0.0001
2e-05
2e-05
-0.0001
-0.0001
3e-05
3e-05
-0.0001
-0.0001
3e-05
3e-05
-9e-05
-8e-05
4e-05
4e-05
-8e-05
-7e-05
5e-05
5e-05
-7e-05
-6e-05
5e-05
5e-05
-6e-05
-5e-05
6e-05
6e-05
-5e-05
-4e-05
7e-05
7e-05
-4e-05
-4e-05
7e-05
7e-05
-4e-05
-3e-05
8e-05
8e-05
-3e-05
-3e-05
8e-05
8e-05
-3e-05
-2e-05
8e-05
8e-05
-2e-05
-2e-05
8e-05
8e-05
-2e-05
-2e-05
8e-05
8e-05
-2e-05
-1e-05
-1e-05
7e-05
7e-05
-1e-05
-1e-05
7e-05
7e-05
-1e-05
-1e-05
6e-05
6e-05
-1e-05
-1e-05
6e-05
6e-05
-1e-05
-2e-05
5e-05
5e-05
-2e-05
-2e-05
5e-05
5e-05
-2e-05
-3e-05
4e-05
4e-05
-3e-05
-3e-05
4e-05
4e-05
-3e-05
-4e-05
4e-05
4e-05
-4e-05
-4e-05
4e-05
4e-05
4e-05
-4e-05
-5e-05
4e-05
4e-05
-5e-05
-5e-05
4e-05
4e-05
-5e-05
-5e-05
4e-05
5e-05
-5e-05
-5e-05
5e-05
5e-05
-5e-05
-5e-05
5e-05
5e-05
-5e-05
-5e-05
6e-05
6e-05
-5e-05
-5e-05
6e-05
6e-05
-5e-05
-4e-05
7e-05
7e-05
-4e-05
-3e-05
7e-05
8e-05
-3e-05
-3e-05
8e-05
9e-05
-3e-05
-2e-05
9e-05
0.0001
-2e-05
-1e-05
0.0001
0.0001
-1e-05
-5e-06
0.0001
0.0001
-6e-06
7e-07
0.0001
0.0001
4e-07
6e-06
0.0001
0.0002
6e-06
1e-05
1e-05
0.0002
0.0002
1e-05
1e-05
0.0002
0.0002
1e-05
2e-05
0.0002
0.0002
2e-05
2e-05
0.0002
0.0002
2e-05
2e-05
0.0002
0.0002
2e-05
2e-05
0.0002
0.0002
2e-05
2e-05
0.0002
0.0002
2e-05
2e-05
0.0002
0.0002
2e-05
2e-05
0.0002
0.0002
2e-05
2e-05
0.0002
0.0002
2e-05
2e-05
0.0002
0.0002
0.0002
2e-05
2e-05
0.0002
0.0002
2e-05
2e-05
0.0002
0.0002
2e-05
2e-05
0.0002
0.0002
2e-05
1e-05
0.0002
0.0002
2e-05
1e-05
0.0002
0.0002
2e-05
1e-05
0.0002
0.0002
2e-05
1e-05
0.0002
0.0002
2e-05
1e-05
0.0002
0.0002
2e-05
1e-05
0.0002
0.0002
2e-05
1e-05
0.0002
0.0001
2e-05
1e-05
0.0001
0.0001
2e-05
1e-05
0.0001
0.0001
2e-05
1e-05
0.0001
0.0001
2e-05
2e-05
0.0001
9e-05
2e-05
2e-05
2e-05
9e-05
8e-05
2e-05
2e-05
8e-05
8e-05
2e-05
2e-05
8e-05
7e-05
2e-05
3e-05
7e-05
7e-05
3e-05
3e-05
6e-05
6e-05
3e-05
3e-05
6e-05
6e-05
3e-05
3e-05
6e-05
5e-05
3e-05
4e-05
5e-05
5e-05
3e-05
4e-05
5e-05
5e-05
3e-05
4e-05
5e-05
5e-05
3e-05
4e-05
5e-05
5e-05
3e-05
4e-05
5e-05
5e-05
3e-05
4e-05
5e-05
5e-05
3e-05
4e-05
6e-05
6e-05
3e-05
3e-05
6e-05
6e-05
3e-05
3e-05
7e-05
7e-05
2e-05
3e-05
7e-05
7e-05
2e-05
3e-05
8e-05
8e-05
2e-05
3e-05
8e-05
8e-05
2e-05
3e-05
9e-05
9e-05
2e-05
3e-05
9e-05
9e-05
2e-05
3e-05
9e-05
9e-05
2e-05
3e-05
9e-05
9e-05
2e-05
3e-05
9e-05
9e-05
2e-05
3e-05
9e-05
9e-05
3e-05
3e-05
9e-05
9e-05
3e-05
3e-05
8e-05
8e-05
3e-05
3e-05
8e-05
8e-05
3e-05
3e-05
7e-05
7e-05
3e-05
3e-05
6e-05
6e-05
4e-05
3e-05
6e-05
4e-05
5e-05
6e-05
4e-05
5e-05
4e-05
SCALARS strain_1 float
LOOKUP_TABLE default
-0.000055
0.000012
-0.000007
-0.000043
-0.000078
-0.000028
-0.000112
-0.000095
-0.000102
-0.000160
-0.000114
-0.000181
-0.000215
-0.000153
-0.000281
-0.000171
-0.000373
-0.000161
-0.000502
-0.000110
-0.000636
-0.000123
-0.000862
-0.000031
-0.001061
0.000118
-0.001370
0.000259
-0.001609
0.000356
-0.001908
0.000478
-0.002259
0.000760
-0.002707
0.000963
-0.003113
0.001244
-0.003585
0.001663
-0.004074
-0.004635
0.002021
-0.005210
0.002445
-0.005893
0.002870
-0.006547
0.003386
-0.007193
0.003902
-0.007955
0.004592
-0.008740
0.005206
-0.009573
0.005927
-0.010361
0.006698
-0.011201
0.007520
-0.012082
0.008325
0.009278
-0.013015
0.010181
-0.013984
0.011142
-0.014975
0.012198
-0.015978
0.013286
-0.016960
0.014332
-0.017961
0.015530
-0.019033
0.016630
-0.020087
0.017883
-0.021197
0.019147
-0.022234
0.020354
-0.023338
0.021652
-0.024507
0.022903
-0.025509
0.024276
-0.026679
0.025564
-0.027763
-0.028821
0.026879
-0.029886
0.028201
-0.030942
0.029537
-0.031947
0.030853
-0.032959
0.032171
-0.033997
0.033494
-0.034978
0.034742
-0.035910
0.035997
-0.036767
0.037267
-0.037740
0.038431
-0.038541
0.039610
0.040737
-0.039377
0.041796
-0.040145
0.042920
-0.040873
0.043889
-0.041563
0.044836
-0.042203
0.045697
-0.042832
0.046546
-0.043355
0.047280
-0.043906
0.048016
-0.044325
0.048655
-0.044712
0.049226
-0.045040
0.049735
-0.045341
0.050159
-0.045575
0.050566
-0.045758
0.050848
-0.045882
0.051024
-0.045939
-0.045904
0.051248
-0.045878
0.051255
-0.045744
0.051277
-0.045618
0.051229
-0.045444
0.051071
-0.045139
0.050859
-0.044837
0.050636
-0.044485
0.050284
-0.044085
0.049848
-0.043543
0.049406
0.048862
-0.043056
0.048269
-0.042528
0.047648
-0.041939
0.046914
-0.041277
0.046196
-0.040562
0.045398
-0.039851
0.044576
-0.039096
0.043614
-0.038294
0.042778
-0.037487
0.041763
-0.036643
0.040773
-0.035733
0.039721
-0.034831
0.038634
-0.033883
0.037577
-0.032967
0.036460
-0.031961
0.035368
-0.031032
-0.030061
0.034246
-0.029076
0.033125
-0.028044
0.031952
-0.026984
0.030748
-0.026061
0.029614
-0.025007
0.028467
-0.024005
0.027286
-0.022970
0.026158
-0.021994
0.025049
-0.020975
0.023890
-0.019967
0.022745
-0.019037
0.021626
-0.018062
0.020520
-0.017147
0.019508
-0.016254
0.018489
-0.015265
0.017479
-0.014459
0.016398
-0.013564
0.015429
-0.012748
0.014558
-0.011895
0.013580
-0.011149
0.012753
-0.010385
0.011851
-0.009596
0.011045
-0.008962
0.010225
-0.008219
0.009467
-0.007610
0.008739
-0.006955
0.008035
-0.006401
0.007414
-0.005838
0.006776
-0.005309
0.006151
-0.004744
0.005547
-0.004291
0.005018
-0.003865
0.004568
-0.003456
0.004074
-0.003051
0.003677
-0.002696
0.003203
-0.002384
0.002834
-0.002077
0.002483
-0.001823
0.002165
-0.001555
0.001882
-0.001261
0.001587
-0.001118
0.001356
-0.000947
0.001119
-0.000730
0.000960
-0.000611
0.000760
-0.000461
0.000594
-0.000343
0.000460
-0.000266
0.000409
-0.000171
0.000275
-0.000134
0.000240
-0.000102
0.000182
-0.000073
0.000078
-0.000078
0.000052
-0.000029
0.000069
-0.000007
0.000009
0.000002
-0.000003
0.000028
0.000034
0.000024
0.000044
0.000020
0.000032
-0.000042
-0.000048
-0.000074
-0.000119
-0.000001
-0.000098
-0.000062
-0.000158
-0.000115
-0.000166