# vtk DataFile Version 2.0
Generated volume Mesh
ASCII
DATASET UNSTRUCTURED_GRID
POINTS 994 float
-0.416146 -0.294827 0.000000
-0.409251 -0.287252 0.000000
-0.421925 -0.286495 0.000000
-0.410201 -0.303043 0.000000
-0.427538 -0.278049 0.000000
-0.404095 -0.311138 0.000000
-0.432982 -0.269494 0.000000
-0.397829 -0.319111 0.000000
-0.438254 -0.260832 0.000000
-0.391406 -0.326958 0.000000
-0.443353 -0.252067 0.000000
-0.384828 -0.334675 0.000000
-0.448277 -0.243202 0.000000
-0.378098 -0.342260 0.000000
-0.453024 -0.234242 0.000000
-0.371218 -0.349710 0.000000
-0.457592 -0.225188 0.000000
-0.364192 -0.357021 0.000000
-0.461979 -0.216046 0.000000
-0.357021 -0.364192 0.000000
-0.466183 -0.206818 0.000000
-0.349710 -0.371218 0.000000
-0.470203 -0.197508 0.000000
-0.342260 -0.378098 0.000000
-0.474037 -0.188120 0.000000
-0.334675 -0.384828 0.000000
-0.477683 -0.178658 0.000000
-0.326958 -0.391406 0.000000
-0.481141 -0.169126 0.000000
-0.319111 -0.397829 0.000000
-0.484408 -0.159526 0.000000
-0.311138 -0.404095 0.000000
-0.487484 -0.149864 0.000000
-0.303043 -0.410201 0.000000
-0.490368 -0.140141 0.000000
-0.294827 -0.416146 0.000000
-0.493057 -0.130363 0.000000
-0.286495 -0.421925 0.000000
-0.495552 -0.120532 0.000000
-0.278049 -0.427538 0.000000
-0.497851 -0.110654 0.000000
-0.269494 -0.432982 0.000000
-0.499953 -0.100732 0.000000
-0.260832 -0.438254 0.000000
-0.501857 -0.090771 0.000000
-0.252067 -0.443353 0.000000
-0.503563 -0.080774 0.000000
-0.243202 -0.448277 0.000000
-0.505069 -0.070746 0.000000
-0.234242 -0.453024 0.000000
-0.506376 -0.060691 0.000000
-0.225188 -0.457592 0.000000
-0.507482 -0.050612 0.000000
-0.216046 -0.461979 0.000000
-0.508388 -0.040514 0.000000
-0.206818 -0.466183 0.000000
-0.509093 -0.030400 0.000000
-0.197508 -0.470203 0.000000
-0.509597 -0.020274 0.000000
-0.188120 -0.474037 0.000000
-0.509899 -0.010139 0.000000
-0.178658 -0.477683 0.000000
-0.510000 0.000000 0.000000
-0.169126 -0.481141 0.000000
-0.509899 0.010139 0.000000
-0.509597 0.020274 0.000000
-0.159526 -0.484408 0.000000
-0.509093 0.030400 0.000000
-0.149864 -0.487484 0.000000
-0.508388 0.040514 0.000000
-0.140141 -0.490368 0.000000
-0.507482 0.050612 0.000000
-0.130363 -0.493057 0.000000
-0.506376 0.060691 0.000000
-0.120532 -0.495552 0.000000
-0.505069 0.070746 0.000000
-0.110654 -0.497851 0.000000
-0.503563 0.080774 0.000000
-0.100732 -0.499953 0.000000
-0.501857 0.090771 0.000000
-0.090771 -0.501857 0.000000
-0.499953 0.100732 0.000000
-0.080774 -0.503563 0.000000
-0.497851 0.110654 0.000000
-0.070746 -0.505069 0.000000
-0.495552 0.120532 0.000000
-0.060691 -0.506376 0.000000
-0.493057 0.130363 0.000000
-0.050612 -0.507482 0.000000
-0.490368 0.140141 0.000000
-0.040514 -0.508388 0.000000
-0.487484 0.149864 0.000000
-0.484408 0.159526 0.000000
-0.030400 -0.509093 0.000000
-0.020274 -0.509597 0.000000
-0.481141 0.169126 0.000000
-0.010139 -0.509899 0.000000
-0.477683 0.178658 0.000000
0.000000 -0.510000 0.000000
-0.474037 0.188120 0.000000
0.010139 -0.509899 0.000000
-0.470203 0.197508 0.000000
0.020274 -0.509597 0.000000
-0.466183 0.206818 0.000000
0.030400 -0.509093 0.000000
-0.461979 0.216046 0.000000
0.040514 -0.508388 0.000000
-0.457592 0.225188 0.000000
0.050612 -0.507482 0.000000
-0.453024 0.234242 0.000000
0.060691 -0.506376 0.000000
-0.448277 0.243202 0.000000
0.070746 -0.505069 0.000000
-0.443353 0.252067 0.000000
0.080774 -0.503563 0.000000
-0.438254 0.260832 0.000000
0.090771 -0.501857 0.000000
-0.432982 0.269494 0.000000
0.100732 -0.499953 0.000000
-0.427538 0.278049 0.000000
0.110654 -0.497851 0.000000
-0.421925 0.286495 0.000000
0.120532 -0.495552 0.000000
-0.416146 0.294827 0.000000
0.130363 -0.493057 0.000000
-0.410201 0.303043 0.000000
0.140141 -0.490368 0.000000
-0.404095 0.311138 0.000000
0.149864 -0.487484 0.000000
0.159526 -0.484408 0.000000
-0.397829 0.319111 0.000000
0.169126 -0.481141 0.000000
-0.391406 0.326958 0.000000
0.178658 -0.477683 0.000000
-0.384828 0.334675 0.000000
0.188120 -0.474037 0.000000
-0.378098 0.342260 0.000000
0.197508 -0.470203 0.000000
-0.371218 0.349710 0.000000
0.206818 -0.466183 0.000000
-0.364192 0.357021 0.000000
0.216046 -0.461979 0.000000
-0.357021 0.364192 0.000000
0.225188 -0.457592 0.000000
-0.349710 0.371218 0.000000
0.234242 -0.453024 0.000000
-0.342260 0.378098 0.000000
0.243202 -0.448277 0.000000
-0.334675 0.384828 0.000000
0.252067 -0.443353 0.000000
-0.326958 0.391406 0.000000
0.260832 -0.438254 0.000000
-0.319111 0.397829 0.000000
0.269494 -0.432982 0.000000
-0.311138 0.404095 0.000000
0.278049 -0.427538 0.000000
-0.303043 0.410201 0.000000
0.286495 -0.421925 0.000000
-0.294827 0.416146 0.000000
0.294827 -0.416146 0.000000
-0.286495 0.421925 0.000000
0.303043 -0.410201 0.000000
-0.278049 0.427538 0.000000
0.311138 -0.404095 0.000000
-0.269494 0.432982 0.000000
0.319111 -0.397829 0.000000
-0.260832 0.438254 0.000000
0.326958 -0.391406 0.000000
-0.252067 0.443353 0.000000
0.334675 -0.384828 0.000000
-0.243202 0.448277 0.000000
0.342260 -0.378098 0.000000
-0.234242 0.453024 0.000000
0.349710 -0.371218 0.000000
-0.225188 0.457592 0.000000
0.357021 -0.364192 0.000000
-0.216046 0.461979 0.000000
0.364192 -0.357021 0.000000
-0.206818 0.466183 0.000000
0.371218 -0.349710 0.000000
-0.197508 0.470203 0.000000
0.378098 -0.342260 0.000000
-0.188120 0.474037 0.000000
0.384828 -0.334675 0.000000
-0.178658 0.477683 0.000000
0.391406 -0.326958 0.000000
-0.169126 0.481141 0.000000
0.397829 -0.319111 0.000000
-0.159526 0.484408 0.000000
0.404095 -0.311138 0.000000
-0.149864 0.487484 0.000000
0.410201 -0.303043 0.000000
-0.140141 0.490368 0.000000
0.416146 -0.294827 0.000000
-0.130363 0.493057 0.000000
0.421925 -0.286495 0.000000
-0.120532 0.495552 0.000000
0.427538 -0.278049 0.000000
-0.110654 0.497851 0.000000
0.432982 -0.269494 0.000000
-0.100732 0.499953 0.000000
0.438254 -0.260832 0.000000
-0.090771 0.501857 0.000000
0.443353 -0.252067 0.000000
-0.080774 0.503563 0.000000
0.448277 -0.243202 0.000000
-0.070746 0.505069 0.000000
0.453024 -0.234242 0.000000
-0.060691 0.506376 0.000000
0.457592 -0.225188 0.000000
-0.050612 0.507482 0.000000
0.461979 -0.216046 0.000000
-0.040514 0.508388 0.000000
0.466183 -0.206818 0.000000
-0.030400 0.509093 0.000000
0.470203 -0.197508 0.000000
-0.020274 0.509597 0.000000
0.474037 -0.188120 0.000000
-0.010139 0.509899 0.000000
0.477683 -0.178658 0.000000
0.000000 0.510000 0.000000
0.481141 -0.169126 0.000000
0.010139 0.509899 0.000000
0.484408 -0.159526 0.000000
0.020274 0.509597 0.000000
0.487484 -0.149864 0.000000
0.030400 0.509093 0.000000
0.490368 -0.140141 0.000000
0.040514 0.508388 0.000000
0.493057 -0.130363 0.000000
0.050612 0.507482 0.000000
0.495552 -0.120532 0.000000
0.060691 0.506376 0.000000
0.497851 -0.110654 0.000000
0.070746 0.505069 0.000000
0.499953 -0.100732 0.000000
0.080774 0.503563 0.000000
0.501857 -0.090771 0.000000
0.090771 0.501857 0.000000
0.503563 -0.080774 0.000000
0.100732 0.499953 0.000000
0.505069 -0.070746 0.000000
0.110654 0.497851 0.000000
0.506376 -0.060691 0.000000
0.120532 0.495552 0.000000
0.507482 -0.050612 0.000000
0.130363 0.493057 0.000000
0.508388 -0.040514 0.000000
0.140141 0.490368 0.000000
0.509093 -0.030400 0.000000
0.149864 0.487484 0.000000
0.509597 -0.020274 0.000000
0.159526 0.484408 0.000000
0.509899 -0.010139 0.000000
0.169126 0.481141 0.000000
0.510000 0.000000 0.000000
0.178658 0.477683 0.000000
0.509899 0.010139 0.000000
0.188120 0.474037 0.000000
0.509597 0.020274 0.000000
0.197508 0.470203 0.000000
0.509093 0.030400 0.000000
0.206818 0.466183 0.000000
0.508388 0.040514 0.000000
0.216046 0.461979 0.000000
0.507482 0.050612 0.000000
0.225188 0.457592 0.000000
0.506376 0.060691 0.000000
0.234242 0.453024 0.000000
0.505069 0.070746 0.000000
0.243202 0.448277 0.000000
0.503563 0.080774 0.000000
0.252067 0.443353 0.000000
0.501857 0.090771 0.000000
0.260832 0.438254 0.000000
0.499953 0.100732 0.000000
0.269494 0.432982 0.000000
0.497851 0.110654 0.000000
0.278049 0.427538 0.000000
0.495552 0.120532 0.000000
0.286495 0.421925 0.000000
0.493057 0.130363 0.000000
0.294827 0.416146 0.000000
0.490368 0.140141 0.000000
0.303043 0.410201 0.000000
0.487484 0.149864 0.000000
0.311138 0.404095 0.000000
0.484408 0.159526 0.000000
0.319111 0.397829 0.000000
0.481141 0.169126 0.000000
0.326958 0.391406 0.000000
0.477683 0.178658 0.000000
0.334675 0.384828 0.000000
0.474037 0.188120 0.000000
0.342260 0.378098 0.000000
0.470203 0.197508 0.000000
0.349710 0.371218 0.000000
0.466183 0.206818 0.000000
0.357021 0.364192 0.000000
0.461979 0.216046 0.000000
0.364192 0.357021 0.000000
0.457592 0.225188 0.000000
0.371218 0.349710 0.000000
0.453024 0.234242 0.000000
0.378098 0.342260 0.000000
0.448277 0.243202 0.000000
0.384828 0.334675 0.000000
0.443353 0.252067 0.000000
0.391406 0.326958 0.000000
0.438254 0.260832 0.000000
0.397829 0.319111 0.000000
0.432982 0.269494 0.000000
0.404095 0.311138 0.000000
0.427538 0.278049 0.000000
0.410201 0.303043 0.000000
0.421925 0.286495 0.000000
0.416146 0.294827 0.000000
-0.415025 -0.278844 0.000000
-0.403306 -0.295541 0.000000
-0.420627 -0.270320 0.000000
-0.397194 -0.303706 0.000000
-0.426054 -0.261684 0.000000
-0.390916 -0.311745 0.000000
-0.431303 -0.252938 0.000000
-0.384475 -0.319654 0.000000
-0.436373 -0.244088 0.000000
-0.377875 -0.327430 0.000000
-0.441261 -0.235136 0.000000
-0.371117 -0.335070 0.000000
-0.445965 -0.226086 0.000000
-0.364205 -0.342571 0.000000
-0.450484 -0.216942 0.000000
-0.357141 -0.349929 0.000000
-0.454816 -0.207707 0.000000
-0.349929 -0.357141 0.000000
-0.458958 -0.198386 0.000000
-0.342571 -0.364205 0.000000
-0.462910 -0.188983 0.000000
-0.335070 -0.371117 0.000000
-0.466668 -0.179501 0.000000
-0.327430 -0.377875 0.000000
-0.470233 -0.169944 0.000000
-0.319654 -0.384475 0.000000
-0.473602 -0.160317 0.000000
-0.311745 -0.390916 0.000000
-0.476773 -0.150623 0.000000
-0.303706 -0.397194 0.000000
-0.479747 -0.140866 0.000000
-0.295541 -0.403306 0.000000
-0.482520 -0.131050 0.000000
-0.287252 -0.409251 0.000000
-0.485094 -0.121178 0.000000
[...]
POINT_DATA 994
SCALARS u1 float
LOOKUP_TABLE default
-0.005
-0.005
-0.005
-0.004
-0.006
-0.004
-0.006
-0.003
-0.007
-0.003
-0.008
-0.002
-0.009
-0.002
-0.009
-0.002
-0.01
-0.002
-0.01
-0.002
-0.01
-0.002
-0.01
-0.002
-0.01
-0.002
-0.02
-0.002
-0.02
-0.002
-0.02
-0.002
-0.02
-0.002
-0.02
-0.003
-0.02
-0.003
-0.02
-0.003
-0.03
-0.003
-0.03
-0.004
-0.03
-0.004
-0.03
-0.004
-0.03
-0.004
-0.03
-0.005
-0.03
-0.005
-0.03
-0.005
-0.04
-0.006
-0.04
-0.006
-0.04
-0.007
-0.04
-0.007
-0.04
-0.04
-0.007
-0.04
-0.008
-0.04
-0.008
-0.03
-0.008
-0.03
-0.009
-0.03
-0.009
-0.03
-0.009
-0.03
-0.009
-0.03
-0.009
-0.03
-0.009
-0.03
-0.009
-0.03
-0.009
-0.03
-0.009
-0.02
-0.02
-0.009
-0.009
-0.02
-0.009
-0.02
-0.009
-0.02
-0.009
-0.02
-0.009
-0.02
-0.009
-0.02
-0.009
-0.02
-0.009
-0.02
-0.009
-0.01
-0.009
-0.01
-0.009
-0.01
-0.009
-0.01
-0.009
-0.01
-0.009
-0.01
-0.01
-0.01
-0.01
-0.01
-0.01
-0.01
-0.01
-0.01
-0.01
-0.01
-0.01
-0.01
-0.01
-0.01
-0.01
-0.01
-0.01
-0.01
-0.01
-0.01
-0.01
-0.01
-0.01
-0.02
-0.01
-0.02
-0.01
-0.02
-0.01
-0.02
-0.01
-0.02
-0.01
-0.02
-0.01
-0.02
-0.01
-0.02
-0.01
-0.02
-0.01
-0.02
-0.01
-0.02
-0.02
-0.02
-0.02
-0.02
-0.02
-0.02
-0.02
-0.02
-0.02
-0.02
-0.02
-0.02
-0.02
-0.02
-0.02
-0.02
-0.02
-0.02
-0.02
-0.02
-0.02
-0.02
-0.02
-0.02
-0.02
-0.02
-0.02
-0.02
-0.02
-0.02
-0.02
-0.02
-0.02
-0.02
-0.02
-0.02
-0.02
-0.02
-0.02
-0.02
-0.02
-0.02
-0.02
-0.02
-0.02
-0.01
-0.02
-0.01
-0.02
-0.01
-0.02
-0.01
-0.02
-0.01
-0.02
-0.009
-0.02
-0.008
-0.02
-0.007
-0.02
-0.006
-0.02
-0.004
-0.02
-0.003
-0.02
-0.002
-0.02
-0.0007
-0.02
0.0004
-0.02
0.001
-0.02
0.002
-0.02
0.003
-0.02
0.004
-0.02
0.005
-0.02
0.005
-0.02
0.006
-0.02
0.006
-0.02
0.006
-0.03
0.006
-0.03
0.005
-0.03
0.004
-0.03
0.004
-0.03
0.003
-0.03
0.002
-0.03
0.0005
-0.03
-0.0008
-0.03
-0.002
-0.03
-0.004
-0.03
-0.005
-0.03
-0.007
-0.03
-0.008
-0.03
-0.01
-0.03
-0.01
-0.03
-0.01
-0.03
-0.01
-0.03
-0.02
-0.03
-0.02
-0.03
-0.02
-0.03
-0.02
-0.03
-0.02
-0.03
-0.02
-0.03
-0.02
-0.03
-0.02
-0.03
-0.02
-0.03
-0.02
-0.03
-0.03
-0.03
-0.03
-0.03
-0.03
-0.03
-0.006
-0.005
-0.006
-0.004
-0.007
-0.004
-0.008
-0.003
-0.009
-0.003
-0.009
-0.002
-0.01
-0.002
-0.01
-0.002
-0.01
-0.002
-0.01
-0.002
-0.01
-0.002
-0.02
-0.002
-0.02
-0.002
-0.02
-0.002
-0.02
-0.002
-0.02
-0.002
-0.02
-0.002
-0.02
-0.003
-0.03
-0.003
-0.03
-0.003
-0.03
-0.003
-0.03
-0.003
-0.03
-0.004
-0.03
-0.004
-0.03
-0.004
-0.03
-0.004
-0.04
-0.005
-0.04
-0.005
-0.04
-0.005
-0.04
-0.006
-0.04
-0.006
-0.04
-0.007
-0.04
-0.007
-0.04
-0.007
-0.03
-0.007
-0.03
-0.008
-0.03
-0.008
-0.03
-0.008
-0.03
-0.008
-0.03
-0.009
-0.03
-0.009
-0.03
-0.009
-0.03
-0.009
-0.03
-0.009
-0.02
-0.009
-0.02
-0.009
-0.02
-0.009
-0.02
-0.009
-0.02
-0.009
-0.02
-0.009
-0.02
-0.009
-0.02
-0.01
-0.02
-0.01
-0.02
-0.01
-0.01
-0.01
-0.01
-0.01
-0.01
-0.01
-0.01
-0.01
-0.01
-0.01
-0.01
-0.01
-0.01
-0.01
-0.01
-0.01
-0.01
-0.01
-0.01
-0.01
-0.01
-0.01
-0.01
-0.01
-0.01
-0.01
-0.01
-0.02
-0.01
-0.02
-0.01
-0.02
-0.01
-0.02
-0.01
-0.02
-0.01
-0.02
-0.01
-0.02
-0.01
-0.02
-0.01
-0.02
-0.01
-0.02
-0.01
-0.02
-0.01
-0.02
-0.01
-0.02
-0.01
-0.02
-0.01
-0.02
-0.02
-0.02
-0.02
-0.02
-0.02
-0.02
-0.02
-0.02
-0.02
-0.02
-0.02
-0.02
-0.02
-0.02
-0.02
-0.02
-0.02
-0.02
-0.02
-0.02
-0.02
-0.02
-0.02
-0.02
-0.02
-0.02
-0.02
-0.02
-0.02
-0.02
-0.02
-0.02
-0.02
-0.02
-0.02
-0.02
-0.02
-0.02
-0.02
-0.01
-0.02
-0.01
-0.02
-0.01
-0.02
-0.01
-0.02
-0.01
-0.02
-0.009
-0.02
-0.008
-0.02
-0.007
-0.02
-0.006
-0.02
-0.004
-0.02
-0.003
-0.02
-0.002
-0.02
-0.0007
-0.02
0.0004
-0.02
0.001
-0.02
0.002
-0.02
0.003
-0.02
0.004
-0.02
0.005
-0.02
0.005
-0.03
0.006
-0.03
0.006
-0.03
0.006
-0.03
0.006
-0.03
0.005
-0.03
0.004
-0.03
0.004
-0.03
0.003
-0.03
0.002
-0.03
0.0004
-0.03
-0.0008
-0.03
-0.002
-0.03
-0.004
-0.03
-0.005
-0.03
-0.007
-0.03
-0.008
-0.03
-0.01
-0.03
-0.01
-0.03
-0.01
-0.03
-0.01
-0.03
-0.02
-0.03
-0.02
-0.03
-0.02
-0.03
-0.02
-0.03
-0.02
-0.03
-0.02
-0.03
-0.02
-0.03
-0.02
-0.03
-0.02
-0.03
-0.02
-0.03
-0.03
-0.03
-0.03
-0.03
-0.005
-0.005
-0.006
-0.004
-0.006
-0.004
-0.007
-0.003
-0.008
-0.003
-0.009
-0.002
-0.009
-0.01
-0.002
-0.01
-0.01
-0.002
-0.01
-0.01
-0.002
-0.01
-0.01
-0.002
-0.01
-0.01
-0.002
-0.02
-0.02
-0.002
-0.02
-0.02
-0.002
-0.02
-0.02
-0.002
-0.02
-0.002
-0.02
-0.002
-0.02
-0.002
-0.02
-0.003
-0.03
-0.003
-0.03
-0.003
-0.03
-0.003
-0.03
-0.003
-0.03
-0.004
-0.03
-0.004
-0.004
-0.03
-0.005
-0.004
-0.03
-0.005
-0.005
-0.03
-0.005
-0.005
-0.005
-0.006
-0.04
-0.006
-0.006
-0.04
-0.006
-0.006
-0.04
-0.007
-0.007
-0.04
-0.007
-0.04
-0.007
-0.04
-0.008
-0.03
-0.008
-0.03
-0.008
-0.03
-0.008
-0.03
-0.009
-0.03
-0.009
-0.03
-0.009
-0.03
-0.009
-0.03
-0.009
-0.03
-0.009
-0.03
-0.009
-0.02
-0.02
-0.02
-0.009
-0.02
-0.02
-0.009
-0.02
-0.02
-0.009
-0.02
-0.02
-0.009
-0.02
-0.02
-0.009
-0.02
-0.02
-0.009
-0.02
-0.02
-0.009
-0.02
-0.02
-0.009
-0.02
-0.009
-0.01
-0.009
-0.01
-0.01
-0.01
-0.01
-0.01
-0.01
-0.01
-0.01
-0.01
-0.01
-0.01
-0.01
-0.01
-0.01
-0.01
-0.01
-0.01
-0.01
-0.01
-0.01
-0.01
-0.01
-0.01
-0.01
-0.01
-0.01
-0.01
-0.01
-0.01
-0.01
-0.01
-0.01
-0.01
-0.01
-0.01
-0.01
-0.02
-0.02
-0.01
-0.02
-0.01
-0.02
-0.01
-0.02
-0.01
-0.02
-0.01
-0.02
-0.01
-0.02
-0.01
-0.02
-0.01
-0.02
-0.01
-0.02
-0.01
-0.02
-0.01
-0.02
-0.01
-0.02
-0.02
-0.02
-0.02
-0.02
-0.02
-0.02
-0.02
-0.02
-0.02
-0.02
-0.02
-0.02
-0.02
-0.02
-0.02
-0.02
-0.02
-0.02
-0.02
-0.02
-0.02
-0.02
-0.02
-0.02
-0.02
-0.02
-0.02
-0.02
-0.02
-0.02
-0.02
-0.02
-0.02
-0.02
-0.02
-0.02
-0.02
-0.02
-0.02
-0.02
-0.02
-0.02
-0.02
-0.02
-0.02
-0.02
-0.02
-0.02
-0.02
-0.01
-0.02
-0.01
-0.01
-0.02
-0.01
-0.01
-0.02
-0.01
-0.01
-0.02
-0.01
-0.01
-0.02
-0.01
-0.01
-0.02
-0.009
-0.008
-0.02
-0.007
-0.02
-0.006
-0.02
-0.005
-0.02
-0.004
-0.02
-0.003
-0.02
-0.001
-0.02
-0.0004
-0.02
0.001
-0.02
0.002
-0.02
0.003
-0.02
0.004
-0.02
0.004
-0.02
0.005
-0.02
0.006
-0.02
0.006
-0.03
-0.03
0.006
-0.03
-0.03
0.006
-0.03
-0.03
0.005
-0.03
-0.03
0.005
-0.03
-0.03
0.004
-0.03
-0.03
0.003
-0.03
-0.03
0.002
-0.03
0.001
-0.03
-0.0002
-0.03
-0.002
-0.03
-0.003
-0.03
-0.004
-0.03
-0.006
-0.03
-0.007
-0.03
-0.009
-0.03
-0.01
-0.03
-0.01
-0.03
-0.01
-0.01
-0.03
-0.01
-0.02
-0.03
-0.02
-0.02
-0.03
-0.02
-0.02
-0.03
-0.02
-0.02
-0.03
-0.02
-0.02
-0.03
-0.02
-0.02
-0.03
-0.02
-0.03
-0.02
-0.03
-0.02
-0.03
-0.02
-0.03
-0.02
-0.03
-0.03
-0.03
-0.03
-0.03
-0.03
SCALARS u2 float
LOOKUP_TABLE default
-0.01
-0.01
-0.01
-0.01
-0.01
-0.01
-0.01
-0.01
-0.01
-0.01
-0.02
-0.01
-0.02
-0.01
-0.02
-0.01
-0.02
-0.01
-0.02
-0.01
-0.02
-0.01
-0.02
-0.01
-0.02
-0.01
-0.02
-0.01
-0.02
-0.01
-0.02
-0.01
-0.02
-0.01
-0.02
-0.01
-0.02
-0.01
-0.02
-0.01
-0.02
-0.01
-0.02
-0.01
-0.02
-0.01
-0.02
-0.01
-0.02
-0.02
-0.02
-0.02
-0.02
-0.02
-0.02
-0.02
-0.02
-0.02
-0.02
-0.02
-0.02
-0.02
-0.02
-0.02
-0.02
-0.02
-0.02
-0.02
-0.02
-0.02
-0.03
-0.02
-0.03
-0.02
-0.03
-0.02
-0.03
-0.02
-0.03
-0.02
-0.03
-0.02
-0.03
-0.02
-0.03
-0.02
-0.03
-0.02
-0.03
-0.02
-0.03
-0.02
-0.02
-0.04
-0.04
-0.02
-0.04
-0.02
-0.04
-0.03
-0.04
-0.03
-0.04
-0.03
-0.03
-0.03
-0.03
-0.03
-0.03
-0.03
-0.03
-0.03
-0.03
-0.03
-0.03
-0.03
-0.03
-0.03
-0.03
-0.03
-0.03
-0.03
-0.02
-0.03
-0.02
-0.03
-0.02
-0.03
-0.02
-0.02
-0.03
-0.02
-0.03
-0.02
-0.03
-0.01
-0.03
-0.01
-0.03
-0.01
-0.03
-0.01
-0.03
-0.01
-0.03
-0.009
-0.03
-0.008
-0.03
-0.007
-0.03
-0.006
-0.03
-0.006
-0.03
-0.005
-0.03
-0.004
-0.03
-0.004
-0.03
-0.003
-0.03
-0.003
-0.03
-0.002
-0.02
-0.002
-0.02
-0.002
-0.02
-0.001
-0.02
-0.001
-0.02
-0.001
-0.02
-0.0009
-0.02
-0.0009
-0.02
-0.001
-0.02
-0.001
-0.02
-0.001
-0.01
-0.001
-0.01
-0.002
-0.01
-0.002
-0.009
-0.002
-0.008
-0.002
-0.006
-0.002
-0.005
-0.003
-0.003
-0.003
-0.002
-0.003
-0.0006
-0.004
0.0006
-0.004
0.002
-0.004
0.003
-0.005
0.004
-0.005
0.004
-0.005
0.005
-0.006
0.005
-0.006
0.006
-0.007
0.006
-0.007
0.006
-0.007
0.005
-0.008
0.005
-0.008
0.004
-0.008
0.003
-0.009
0.002
-0.009
0.001
-0.009
0.0003
-0.009
-0.0009
-0.009
-0.002
-0.009
-0.003
-0.009
-0.005
-0.009
-0.006
-0.009
-0.007
-0.009
-0.008
-0.009
-0.009
-0.009
-0.01
-0.009
-0.01
-0.008
-0.01
-0.008
-0.01
-0.008
-0.01
-0.008
-0.02
-0.008
-0.02
-0.008
-0.02
-0.009
-0.02
-0.009
-0.02
-0.009
-0.02
-0.009
-0.02
-0.009
-0.02
-0.01
-0.02
-0.01
-0.02
-0.01
-0.02
-0.01
-0.02
-0.01
-0.02
-0.01
-0.02
-0.01
-0.02
-0.01
-0.02
-0.01
-0.02
-0.01
-0.02
-0.01
-0.02
-0.02
-0.02
-0.02
-0.02
-0.02
-0.02
-0.02
-0.02
-0.02
-0.02
-0.02
-0.02
-0.02
-0.02
-0.01
-0.01
-0.01
-0.01
-0.01
-0.01
-0.01
-0.01
-0.01
-0.01
-0.02
-0.01
-0.02
-0.01
-0.02
-0.01
-0.02
-0.01
-0.02
-0.01
-0.02
-0.01
-0.02
-0.01
-0.02
-0.01
-0.02
-0.01
-0.02
-0.01
-0.02
-0.01
-0.02
-0.01
-0.02
-0.01
-0.02
-0.01
-0.02
-0.01
-0.02
-0.01
-0.02
-0.01
-0.02
-0.02
-0.02
-0.02
-0.02
-0.02
-0.02
-0.02
-0.02
-0.02
-0.02
-0.02
-0.02
-0.02
-0.02
-0.02
-0.02
-0.02
-0.02
-0.02
-0.02
-0.02
-0.02
-0.03
-0.02
-0.03
-0.02
-0.03
-0.02
-0.03
-0.02
-0.03
-0.02
-0.03
-0.02
-0.03
-0.02
-0.03
-0.02
-0.03
-0.02
-0.03
-0.02
-0.04
-0.02
-0.04
-0.03
-0.04
-0.03
-0.04
-0.03
-0.04
-0.03
-0.04
-0.03
-0.03
-0.03
-0.03
-0.03
-0.03
-0.03
-0.03
-0.03
-0.03
-0.03
-0.03
-0.03
-0.03
-0.03
-0.03
-0.03
-0.03
-0.03
-0.02
-0.03
-0.02
-0.03
-0.02
-0.03
-0.02
-0.03
-0.02
-0.03
-0.02
-0.03
-0.02
-0.03
-0.01
-0.03
-0.01
-0.03
-0.01
-0.03
-0.01
-0.03
-0.009
-0.03
-0.009
-0.03
-0.008
-0.03
-0.007
-0.03
-0.006
-0.03
-0.006
-0.03
-0.005
-0.03
-0.004
-0.03
-0.004
-0.03
-0.003
-0.02
-0.003
-0.02
-0.002
-0.02
-0.002
-0.02
-0.002
-0.02
-0.001
-0.02
-0.001
-0.02
-0.001
-0.02
-0.0009
-0.02
-0.0009
-0.02
-0.001
-0.01
-0.001
-0.01
-0.001
-0.01
-0.001
-0.009
-0.002
-0.008
-0.002
-0.006
-0.002
-0.005
-0.002
-0.003
-0.002
-0.002
-0.003
-0.0007
-0.003
0.0006
-0.003
0.002
-0.003
0.003
-0.004
0.004
-0.004
0.004
-0.004
0.005
-0.005
0.005
-0.005
0.006
-0.005
0.006
-0.006
0.006
-0.006
0.005
-0.006
0.005
-0.007
0.004
-0.007
0.003
-0.007
0.002
-0.008
0.001
-0.008
0.0002
-0.008
-0.0009
-0.008
-0.002
-0.008
-0.003
-0.008
-0.005
-0.009
-0.006
-0.009
-0.007
-0.009
-0.008
-0.009
-0.01
-0.009
-0.01
-0.009
-0.01
-0.009
-0.01
-0.009
-0.01
-0.009
-0.01
-0.009
-0.02
-0.009
-0.02
-0.01
-0.02
-0.01
-0.02
-0.01
-0.02
-0.01
-0.02
-0.01
-0.02
-0.01
-0.02
-0.01
-0.02
-0.01
-0.02
-0.01
-0.02
-0.01
-0.02
-0.01
-0.02
-0.01
-0.02
-0.01
-0.02
-0.01
-0.02
-0.02
-0.02
-0.02
-0.02
-0.02
-0.02
-0.02
-0.02
-0.02
-0.02
-0.02
-0.02
-0.02
-0.02
-0.02
-0.02
-0.02
-0.02
-0.01
-0.01
-0.01
-0.01
-0.01
-0.01
-0.01
-0.01
-0.01
-0.01
-0.02
-0.01
-0.02
-0.02
-0.01
-0.02
-0.02
-0.01
-0.02
-0.02
-0.01
-0.02
-0.02
-0.01
-0.02
-0.02
-0.01
-0.02
-0.02
-0.01
-0.02
-0.02
-0.01
-0.02
-0.02
-0.01
-0.02
-0.01
-0.02
-0.01
-0.02
-0.01
-0.02
-0.01
-0.02
-0.01
-0.02
-0.01
-0.02
-0.01
-0.02
-0.01
-0.02
-0.01
-0.02
-0.02
-0.02
-0.02
-0.02
-0.02
-0.02
-0.02
-0.02
-0.02
-0.02
-0.02
-0.02
-0.02
-0.02
-0.02
-0.02
-0.02
-0.02
-0.02
-0.02
-0.02
-0.02
-0.02
-0.02
-0.02
-0.02
-0.02
-0.03
-0.02
-0.03
-0.02
-0.03
-0.02
-0.03
-0.02
-0.03
-0.02
-0.03
-0.02
-0.03
-0.02
-0.03
-0.02
-0.03
-0.02
-0.03
-0.02
-0.03
-0.02
-0.02
-0.02
-0.04
-0.03
-0.02
-0.04
-0.03
-0.03
-0.04
-0.03
-0.03
-0.04
-0.03
-0.03
-0.04
-0.03
-0.03
-0.03
-0.03
-0.03
-0.03
-0.03
-0.03
-0.03
-0.03
-0.03
-0.03
-0.03
-0.03
-0.03
-0.03
-0.03
-0.03
-0.03
-0.03
-0.02
-0.03
-0.02
-0.03
-0.02
-0.03
-0.02
-0.03
-0.02
-0.02
-0.03
-0.02
-0.02
-0.03
-0.02
-0.01
-0.03
-0.01
-0.01
-0.03
-0.01
-0.01
-0.03
-0.01
-0.01
-0.03
-0.01
-0.01
-0.03
-0.009
-0.01
-0.03
-0.009
-0.03
-0.008
-0.03
-0.007
-0.03
-0.006
-0.03
-0.006
-0.03
-0.005
-0.03
-0.005
-0.03
-0.004
-0.03
-0.003
-0.03
-0.003
-0.02
-0.002
-0.02
-0.002
-0.02
-0.002
-0.02
-0.02
-0.001
-0.02
-0.02
-0.001
-0.02
-0.02
-0.001
-0.02
-0.02
-0.0009
-0.02
-0.02
-0.0009
-0.02
-0.02
-0.001
-0.01
-0.01
-0.001
-0.01
-0.01
-0.001
-0.01
-0.001
-0.01
-0.002
-0.009
-0.002
-0.007
-0.002
-0.006
-0.002
-0.004
-0.002
-0.003
-0.003
-0.002
-0.003
-4e-05
-0.003
0.001
-0.003
-0.004
0.002
-0.004
-0.004
0.003
-0.004
-0.004
0.004
-0.005
-0.005
0.005
-0.005
-0.005
0.005
-0.005
-0.006
0.006
-0.006
-0.006
0.006
-0.006
-0.006
0.006
-0.007
0.005
-0.007
0.005
-0.007
0.004
-0.008
0.004
-0.008
0.003
-0.008
0.002
-0.008
0.0008
-0.008
-0.0005
-0.009
-0.002
-0.009
-0.003
-0.009
-0.004
-0.009
-0.005
-0.009
-0.006
-0.009
-0.008
-0.009
-0.009
-0.009
-0.009
-0.01
-0.01
-0.009
-0.01
-0.01
-0.009
-0.01
-0.01
-0.009
-0.01
-0.01
-0.009
-0.01
-0.01
-0.009
-0.01
-0.02
-0.009
-0.02
-0.009
-0.02
-0.009
-0.02
-0.009
-0.02
-0.01
-0.02
-0.01
-0.02
-0.01
-0.02
-0.01
-0.02
-0.01
-0.02
-0.01
-0.02
-0.01
-0.02
-0.01
-0.01
-0.02
-0.01
-0.01
-0.02
-0.01
-0.01
-0.02
-0.01
-0.01
-0.02
-0.01
-0.01
-0.02
-0.01
-0.01
-0.02
-0.02
-0.01
-0.02
-0.02
-0.02
-0.02
-0.02
-0.02
-0.02
-0.02
-0.02
-0.02
-0.02
-0.02
-0.02
-0.02
-0.02
-0.02
SCALARS strain_1 float
LOOKUP_TABLE default
-0.031673
-0.020780
0.019768
-0.079802
0.071864
-0.125766
0.126721
-0.170290
0.183731
-0.211452
0.242915
-0.251845
0.304121
-0.289344
0.366448
-0.324168
0.432248
-0.357776
0.500260
-0.388499
0.568792
-0.417375
0.640062
-0.443275
0.713110
-0.468688
0.787798
-0.492348
0.864299
-0.512319
0.942318
-0.532234
1.021746
-0.548378
1.103261
-0.564194
1.186544
-0.577599
1.270914
-0.588718
1.355706
-0.598666
1.443345
-0.606498
1.531009
-0.613010
1.619618
-0.617814
1.709989
-0.621682
1.800647
-0.623556
1.892340
-0.623010
1.983463
-0.622526
2.076625
-0.620709
2.170009
-0.617615
2.263851
-0.612764
2.357117
-0.607786
2.451044
2.544172
-0.599034
2.638155
-0.591958
2.731283
-0.583760
2.823310
-0.573092
2.916537
-0.564434
3.007935
-0.552251
3.098235
-0.539504
3.187892
-0.527609
3.276881
-0.514637
3.364910
-0.500492
3.451664
-0.486435
3.536334
-0.472308
3.619242
-0.457276
3.700556
3.781884
-0.442156
-0.425937
3.859430
-0.411070
3.935810
-0.394071
4.010129
-0.378681
4.081072
-0.362768
4.150865
-0.347006
4.217857
-0.331352
4.281434
-0.316243
4.344160
-0.300476
4.402549
-0.284635
4.458898
-0.269515
4.512189
-0.254494
4.562563
-0.240194
4.609157
-0.226830
4.653280
-0.213170
4.693600
-0.198805
4.731139
-0.185457
4.764930
-0.174514
-0.161696
4.794720
-0.150610
4.822452
-0.140057
4.845582
-0.129062
4.865357
-0.119581
4.882402
-0.110145
4.894133
-0.102269
4.904204
-0.095245
4.909038
-0.087940
4.911793
-0.080854
4.909413
-0.075568
4.904573
-0.070064
4.895355
-0.065590
4.883420
-0.062079
4.866482
-0.059236
4.847401
-0.056532
4.824302
-0.054816
4.797512
-0.053466
4.767606
-0.052111
4.733453
-0.051967
4.697339
-0.053305
4.657184
-0.054739
4.614595
-0.056829
4.567800
-0.059342
4.518755
-0.062234
4.467847
-0.065769
4.412166
-0.070552
4.355470
-0.075542
4.294420
-0.080786
4.231968
-0.086478
4.167011
-0.092813
4.099309
-0.099419
4.029266
-0.106390
3.958195
-0.114250
3.883929
-0.121672
3.809019
-0.129750
3.731303
-0.138168
3.652128
-0.146858
3.571523
-0.156023
3.489711
-0.165298
3.406309
-0.176044
3.322558
-0.185411
3.237523
-0.195942
3.150883
-0.204549
3.064022
-0.215484
2.977197
-0.225272
2.889201
-0.236126
2.800411
-0.246920
2.711930
-0.256688
2.623352
-0.268292
2.534956
-0.277241
2.444985
-0.287680
2.357801
-0.298811
2.269868
-0.307873
2.181612
-0.318174
2.094158
-0.327599
2.007626
-0.337108
1.922144
-0.347089
1.837152
-0.356316
1.753052
-0.364761
1.669810
-0.372357
1.587500
-0.380470
1.507341
-0.387898
1.427402
-0.395396
1.348266
-0.401685
1.271078
-0.409147
1.195360
-0.413786
1.121944
-0.418959
1.049621
-0.422867
0.978725
-0.427328
0.909545
-0.430557
0.842871
-0.433837
0.775834
-0.434835
0.712072
-0.435199
0.649682
-0.436053
0.589173
-0.434254
0.531279
-0.433907
0.473585
-0.430259
0.419050
-0.426457
0.366598
-0.423178
0.314846
-0.417654
0.265563
-0.411396
0.217709
-0.403481
0.172124
-0.393902
0.128562
-0.384148
0.087258
-0.374164
0.047357
-0.360374
0.009453
-0.346362
-0.027584
-0.331627
-0.061496
-0.315030
-0.094169
-0.296167
-0.125755
-0.276305
-0.154578
-0.255307
-0.182018
-0.232851
-0.207946
0.030624
-0.069014
0.083978
-0.116671
0.139656
-0.161158
0.196935
-0.203590
0.256255
-0.243624
0.318130
-0.281459
0.383306
-0.317371
0.449495
-0.351497
0.516681
-0.383542
0.587542
-0.411636
0.658735
-0.440076
0.733108
-0.465042
0.808323
-0.487754
0.885716
-0.508932
0.964189
-0.528148
1.044441
-0.545589
1.125666
-0.560819
1.209614
-0.573910
1.294639
-0.586084
1.380282
-0.595488
1.467219
-0.603771
1.555894
-0.610815
1.645054
-0.615575
1.735322
-0.619486
1.825958
-0.621515
1.916655
-0.621677
2.009008
-0.621065
2.102196
-0.618494
2.194039
-0.615343
2.286807
-0.611013
2.380424
-0.605279
2.473542
-0.598842
2.565514
-0.591196
2.657848
-0.582196
2.750458
-0.572678
2.841130
-0.562444
2.931525
-0.550697
3.021291
-0.539218
3.110479
-0.526581
3.197179
-0.514057
3.284669
-0.500375
3.369210
-0.486383
3.453683
-0.471993
3.535527
-0.456696
3.615224
-0.442151
3.694395
-0.427071
3.770527
-0.411397
3.844848
-0.396651
3.916049
-0.380518
3.987210
-0.365075
4.053766
-0.350165
4.119187
-0.335493
4.181042
-0.320231
4.240054
-0.304839
4.297243
-0.289703
4.350202
-0.275480
4.401133
-0.261549
4.448166
-0.247280
4.492631
-0.234371
4.533800
-0.220230
4.571618
-0.208494
4.605517
-0.197204
4.635783
-0.185273
4.663391
-0.174343
4.687161
-0.164007
4.706695
-0.154183
4.723186
-0.145616
4.735976
-0.136378
4.745541
-0.129226
4.750926
-0.120984
4.752043
-0.114263
4.750376
-0.108465
4.744945
-0.102676
4.735198
-0.098365
4.722383
-0.094033
4.706411
-0.091086
4.686138
-0.087393
4.662503
-0.085968
4.635664
-0.084079
4.605672
-0.083047
4.571119
-0.083761
4.533710
-0.083852
4.494296
-0.085664
4.450640
-0.086607
4.403478
-0.088615
4.353928
-0.091477
4.299895
-0.095297
4.245543
-0.099893
4.187320
-0.104231
4.126718
-0.109262
4.063185
-0.114560
3.996709
-0.121502
3.929454
-0.127201
3.859449
-0.133816
3.787966
-0.141650
3.713678
-0.148767
3.637531
-0.157033
3.559467
-0.165427
3.480298
-0.174236
3.399366
-0.183805
3.316978
-0.192557
3.233585
-0.202037
3.150875
-0.211300
3.065420
-0.220565
2.979637
-0.231031
2.893383
-0.240503
2.806178
-0.250388
2.717352
-0.260712
2.630457
-0.270492
2.543234
-0.280166
2.454535
-0.290462
2.367889
-0.300753
2.279357
-0.310726
2.192652
-0.320998
2.104811
-0.330680
2.019043
-0.339591
1.933095
-0.348535
1.847140
-0.358169
1.763868
-0.366106
1.680056
-0.374052
1.598427
-0.382869
1.516382
-0.389781
1.437575
-0.396569
1.358341
-0.404012
1.281150
-0.408976
1.204101
-0.416026
1.130653
-0.421348
1.057115
-0.424844
0.985908
-0.429705
0.916100
-0.433246
0.847521
-0.435667
0.781315
-0.437152
0.716722
-0.438649
0.654041
-0.439313
0.593184
-0.438196
0.534151
-0.437231
0.476306
-0.434300
0.420854
-0.430819
0.368089
-0.427219
0.315951
-0.421927
0.266865
-0.415526
0.218778
-0.407007
0.172465
-0.398148
0.128454
-0.388013
0.086626
-0.376569
0.046106
-0.364346
0.007379
-0.350098
-0.028770
-0.334741
-0.064240
-0.317308
-0.097133
-0.299903
-0.128441
-0.279901
-0.157715
-0.259601
-0.235818
-0.185337
-0.210965
0.008992
-0.051496
0.052372
-0.098177
0.106212
-0.143767
0.161354
-0.186770
0.219926
-0.228230
0.279980
-0.267319
0.340485
0.389659
-0.306969
0.455554
0.422132
-0.338853
0.524008
0.492161
-0.370241
0.560707
0.595744
-0.399409
0.632166
0.669465
-0.422585
0.743122
0.703844
-0.454806
0.778814
0.818997
-0.479228
0.901267
0.855656
-0.499989
0.957215
-0.520706
1.034488
-0.538747
1.115036
-0.557769
1.197827
-0.569414
1.282355
-0.582132
1.367805
-0.592533
1.451846
-0.601945
1.524836
-0.608888
1.632921
-0.614668
1.722326
-0.619450
-0.621576
1.813002
-0.622823
-0.622217
1.904097
-0.622466
-0.622595
1.997088
-0.621570
-0.622678
-0.620876
-0.619291
2.109700
-0.617718
-0.615874
2.194737
-0.612880
-0.611060
2.289373
-0.607818
-0.603958
2.384750
-0.599473
2.507268
-0.591849
2.666080
-0.582667
2.739275
-0.574085
2.814170
-0.563298
2.923325
-0.551832
3.014882
-0.542601
3.104327
-0.527534
3.208614
-0.513192
3.283214
-0.500492
3.367215
-0.482897
3.452079
-0.472888
3.535436
-0.459662
3.618036
3.694459
3.755289
-0.433127
3.833086
3.795322
-0.413032
3.911623
3.871734
-0.396283
3.945726
3.982183
-0.380763
4.015794
4.053611
-0.367574
4.084092
4.119831
-0.349159
4.150331
4.186144
-0.333492
4.213985
4.254171
-0.317983
4.294561
-0.302251
4.350602
-0.287858
4.403392
-0.269662
4.455543
-0.256891
4.504276
-0.244119
4.549949
-0.230495
4.590508
-0.217425
4.623393
-0.204349
4.668072
-0.191349
4.699792
-0.180073
-0.170523
4.728966
-0.165767
-0.159861
4.753847
-0.154220
-0.148571
4.775995