# vtk DataFile Version 2.0
Generated volume Mesh
ASCII
DATASET UNSTRUCTURED_GRID
POINTS 1240 float
-0.212153 -0.150304 0.000000
-0.206421 -0.141033 0.000000
-0.215099 -0.146056 0.000000
-0.209122 -0.154492 0.000000
-0.217961 -0.141751 0.000000
-0.206009 -0.158620 0.000000
-0.220736 -0.137389 0.000000
-0.202815 -0.162684 0.000000
-0.223424 -0.132973 0.000000
-0.226023 -0.128505 0.000000
-0.199540 -0.166684 0.000000
-0.228534 -0.123985 0.000000
-0.196187 -0.170619 0.000000
-0.230953 -0.119417 0.000000
-0.192756 -0.174486 0.000000
-0.233282 -0.114802 0.000000
-0.189249 -0.178283 0.000000
-0.235519 -0.110141 0.000000
-0.185666 -0.182011 0.000000
-0.237662 -0.105436 0.000000
-0.182011 -0.185666 0.000000
-0.239711 -0.100690 0.000000
-0.178283 -0.189249 0.000000
-0.241666 -0.095904 0.000000
-0.174486 -0.192756 0.000000
-0.243525 -0.091081 0.000000
-0.170619 -0.196187 0.000000
-0.245288 -0.086221 0.000000
-0.166684 -0.199540 0.000000
-0.246953 -0.081327 0.000000
-0.162684 -0.202815 0.000000
-0.248521 -0.076401 0.000000
-0.158620 -0.206009 0.000000
-0.249991 -0.071445 0.000000
-0.154492 -0.209122 0.000000
-0.251363 -0.066459 0.000000
-0.150304 -0.212153 0.000000
-0.252634 -0.061448 0.000000
-0.146056 -0.215099 0.000000
-0.253806 -0.056412 0.000000
-0.141751 -0.217961 0.000000
-0.137389 -0.220736 0.000000
-0.254878 -0.051354 0.000000
-0.132973 -0.223424 0.000000
-0.255849 -0.046275 0.000000
-0.128505 -0.226023 0.000000
-0.256718 -0.041179 0.000000
-0.123985 -0.228534 0.000000
-0.257486 -0.036067 0.000000
-0.119417 -0.230953 0.000000
-0.258152 -0.030940 0.000000
-0.114802 -0.233282 0.000000
-0.258717 -0.025802 0.000000
-0.110141 -0.235519 0.000000
-0.259178 -0.020654 0.000000
-0.105436 -0.237662 0.000000
-0.259538 -0.015498 0.000000
-0.100690 -0.239711 0.000000
-0.259794 -0.010336 0.000000
-0.095904 -0.241666 0.000000
-0.259949 -0.005169 0.000000
-0.091081 -0.243525 0.000000
-0.260000 0.000000 0.000000
-0.259949 0.005169 0.000000
-0.086221 -0.245288 0.000000
-0.259794 0.010336 0.000000
-0.081327 -0.246953 0.000000
-0.259538 0.015498 0.000000
-0.076401 -0.248521 0.000000
-0.259178 0.020654 0.000000
-0.071445 -0.249991 0.000000
-0.258717 0.025802 0.000000
-0.066459 -0.251363 0.000000
-0.258152 0.030940 0.000000
-0.061448 -0.252634 0.000000
-0.257486 0.036067 0.000000
-0.056412 -0.253806 0.000000
-0.256718 0.041179 0.000000
-0.051354 -0.254878 0.000000
-0.255849 0.046275 0.000000
-0.046275 -0.255849 0.000000
-0.254878 0.051354 0.000000
-0.041179 -0.256718 0.000000
-0.253806 0.056412 0.000000
-0.036067 -0.257486 0.000000
-0.252634 0.061448 0.000000
-0.030940 -0.258152 0.000000
-0.251363 0.066459 0.000000
-0.025802 -0.258717 0.000000
-0.249991 0.071445 0.000000
-0.020654 -0.259178 0.000000
-0.248521 0.076401 0.000000
-0.015498 -0.259538 0.000000
-0.010336 -0.259794 0.000000
-0.246953 0.081327 0.000000
-0.005169 -0.259949 0.000000
-0.245288 0.086221 0.000000
0.000000 -0.260000 0.000000
-0.243525 0.091081 0.000000
0.005169 -0.259949 0.000000
-0.241666 0.095904 0.000000
0.010336 -0.259794 0.000000
-0.239711 0.100690 0.000000
0.015498 -0.259538 0.000000
-0.237662 0.105436 0.000000
0.020654 -0.259178 0.000000
-0.235519 0.110141 0.000000
0.025802 -0.258717 0.000000
-0.233282 0.114802 0.000000
0.030940 -0.258152 0.000000
-0.230953 0.119417 0.000000
0.036067 -0.257486 0.000000
-0.228534 0.123985 0.000000
0.041179 -0.256718 0.000000
-0.226023 0.128505 0.000000
-0.223424 0.132973 0.000000
0.046275 -0.255849 0.000000
-0.220736 0.137389 0.000000
0.051354 -0.254878 0.000000
-0.217961 0.141751 0.000000
0.056412 -0.253806 0.000000
-0.215099 0.146056 0.000000
0.061448 -0.252634 0.000000
-0.212153 0.150304 0.000000
0.066459 -0.251363 0.000000
-0.209122 0.154492 0.000000
0.071445 -0.249991 0.000000
-0.206009 0.158620 0.000000
0.076401 -0.248521 0.000000
-0.202815 0.162684 0.000000
0.081327 -0.246953 0.000000
-0.199540 0.166684 0.000000
0.086221 -0.245288 0.000000
-0.196187 0.170619 0.000000
0.091081 -0.243525 0.000000
-0.192756 0.174486 0.000000
0.095904 -0.241666 0.000000
-0.189249 0.178283 0.000000
0.100690 -0.239711 0.000000
-0.185666 0.182011 0.000000
0.105436 -0.237662 0.000000
-0.182011 0.185666 0.000000
0.110141 -0.235519 0.000000
-0.178283 0.189249 0.000000
0.114802 -0.233282 0.000000
-0.174486 0.192756 0.000000
0.119417 -0.230953 0.000000
0.123985 -0.228534 0.000000
-0.170619 0.196187 0.000000
0.128505 -0.226023 0.000000
-0.166684 0.199540 0.000000
0.132973 -0.223424 0.000000
-0.162684 0.202815 0.000000
0.137389 -0.220736 0.000000
-0.158620 0.206009 0.000000
0.141751 -0.217961 0.000000
-0.154492 0.209122 0.000000
0.146056 -0.215099 0.000000
-0.150304 0.212153 0.000000
0.150304 -0.212153 0.000000
-0.146056 0.215099 0.000000
0.154492 -0.209122 0.000000
-0.141751 0.217961 0.000000
0.158620 -0.206009 0.000000
-0.137389 0.220736 0.000000
0.162684 -0.202815 0.000000
-0.132973 0.223424 0.000000
-0.128505 0.226023 0.000000
0.166684 -0.199540 0.000000
-0.123985 0.228534 0.000000
0.170619 -0.196187 0.000000
-0.119417 0.230953 0.000000
0.174486 -0.192756 0.000000
-0.114802 0.233282 0.000000
0.178283 -0.189249 0.000000
-0.110141 0.235519 0.000000
0.182011 -0.185666 0.000000
-0.105436 0.237662 0.000000
0.185666 -0.182011 0.000000
-0.100690 0.239711 0.000000
0.189249 -0.178283 0.000000
-0.095904 0.241666 0.000000
0.192756 -0.174486 0.000000
-0.091081 0.243525 0.000000
0.196187 -0.170619 0.000000
-0.086221 0.245288 0.000000
0.199540 -0.166684 0.000000
-0.081327 0.246953 0.000000
0.202815 -0.162684 0.000000
-0.076401 0.248521 0.000000
0.206009 -0.158620 0.000000
-0.071445 0.249991 0.000000
0.209122 -0.154492 0.000000
-0.066459 0.251363 0.000000
0.212153 -0.150304 0.000000
-0.061448 0.252634 0.000000
0.215099 -0.146056 0.000000
-0.056412 0.253806 0.000000
0.217961 -0.141751 0.000000
0.220736 -0.137389 0.000000
-0.051354 0.254878 0.000000
0.223424 -0.132973 0.000000
-0.046275 0.255849 0.000000
0.226023 -0.128505 0.000000
-0.041179 0.256718 0.000000
0.228534 -0.123985 0.000000
-0.036067 0.257486 0.000000
0.230953 -0.119417 0.000000
-0.030940 0.258152 0.000000
0.233282 -0.114802 0.000000
-0.025802 0.258717 0.000000
0.235519 -0.110141 0.000000
-0.020654 0.259178 0.000000
0.237662 -0.105436 0.000000
-0.015498 0.259538 0.000000
0.239711 -0.100690 0.000000
-0.010336 0.259794 0.000000
0.241666 -0.095904 0.000000
-0.005169 0.259949 0.000000
0.243525 -0.091081 0.000000
0.000000 0.260000 0.000000
0.245288 -0.086221 0.000000
0.005169 0.259949 0.000000
0.246953 -0.081327 0.000000
0.010336 0.259794 0.000000
0.248521 -0.076401 0.000000
0.015498 0.259538 0.000000
0.249991 -0.071445 0.000000
0.020654 0.259178 0.000000
0.251363 -0.066459 0.000000
0.025802 0.258717 0.000000
0.252634 -0.061448 0.000000
0.030940 0.258152 0.000000
0.253806 -0.056412 0.000000
0.036067 0.257486 0.000000
0.254878 -0.051354 0.000000
0.041179 0.256718 0.000000
0.255849 -0.046275 0.000000
0.046275 0.255849 0.000000
0.256718 -0.041179 0.000000
0.051354 0.254878 0.000000
0.257486 -0.036067 0.000000
0.056412 0.253806 0.000000
0.258152 -0.030940 0.000000
0.061448 0.252634 0.000000
0.258717 -0.025802 0.000000
0.066459 0.251363 0.000000
0.259178 -0.020654 0.000000
0.071445 0.249991 0.000000
0.259538 -0.015498 0.000000
0.076401 0.248521 0.000000
0.259794 -0.010336 0.000000
0.081327 0.246953 0.000000
0.259949 -0.005169 0.000000
0.086221 0.245288 0.000000
0.260000 0.000000 0.000000
0.091081 0.243525 0.000000
0.259949 0.005169 0.000000
0.095904 0.241666 0.000000
0.259794 0.010336 0.000000
0.100690 0.239711 0.000000
0.259538 0.015498 0.000000
0.105436 0.237662 0.000000
0.259178 0.020654 0.000000
0.110141 0.235519 0.000000
0.258717 0.025802 0.000000
0.114802 0.233282 0.000000
0.258152 0.030940 0.000000
0.119417 0.230953 0.000000
0.257486 0.036067 0.000000
0.123985 0.228534 0.000000
0.256718 0.041179 0.000000
0.128505 0.226023 0.000000
0.255849 0.046275 0.000000
0.132973 0.223424 0.000000
0.254878 0.051354 0.000000
0.137389 0.220736 0.000000
0.253806 0.056412 0.000000
0.141751 0.217961 0.000000
0.252634 0.061448 0.000000
0.146056 0.215099 0.000000
0.251363 0.066459 0.000000
0.150304 0.212153 0.000000
0.249991 0.071445 0.000000
0.154492 0.209122 0.000000
0.248521 0.076401 0.000000
0.158620 0.206009 0.000000
0.246953 0.081327 0.000000
0.162684 0.202815 0.000000
0.245288 0.086221 0.000000
0.166684 0.199540 0.000000
0.243525 0.091081 0.000000
0.170619 0.196187 0.000000
0.241666 0.095904 0.000000
0.174486 0.192756 0.000000
0.239711 0.100690 0.000000
0.178283 0.189249 0.000000
0.237662 0.105436 0.000000
0.182011 0.185666 0.000000
0.235519 0.110141 0.000000
0.185666 0.182011 0.000000
0.233282 0.114802 0.000000
0.189249 0.178283 0.000000
0.230953 0.119417 0.000000
0.192756 0.174486 0.000000
0.228534 0.123985 0.000000
0.196187 0.170619 0.000000
0.226023 0.128505 0.000000
0.199540 0.166684 0.000000
0.223424 0.132973 0.000000
0.202815 0.162684 0.000000
0.220736 0.137389 0.000000
0.206009 0.158620 0.000000
0.217961 0.141751 0.000000
0.209122 0.154492 0.000000
0.215099 0.146056 0.000000
0.212153 0.150304 0.000000
-0.203462 -0.145269 0.000000
-0.209292 -0.136737 0.000000
-0.200416 -0.149443 0.000000
-0.212073 -0.132382 0.000000
-0.197285 -0.153553 0.000000
-0.214764 -0.127971 0.000000
-0.194070 -0.157598 0.000000
-0.217362 -0.123505 0.000000
-0.190771 -0.161575 0.000000
-0.219868 -0.118987 0.000000
-0.187391 -0.165483 0.000000
-0.222281 -0.114417 0.000000
-0.183931 -0.169320 0.000000
-0.224598 -0.109799 0.000000
-0.180392 -0.173086 0.000000
-0.226819 -0.105134 0.000000
-0.176777 -0.176777 0.000000
-0.228943 -0.100424 0.000000
-0.173086 -0.180392 0.000000
-0.230970 -0.095671 0.000000
-0.169320 -0.183931 0.000000
-0.232898 -0.090877 0.000000
-0.165483 -0.187391 0.000000
-0.234726 -0.086044 0.000000
-0.161575 -0.190771 0.000000
-0.236454 -0.081175 0.000000
-0.157598 -0.194070 0.000000
-0.238081 -0.076271 0.000000
-0.153553 -0.197285 0.000000
-0.239607 -0.071334 0.000000
-0.149443 -0.200416 0.000000
-0.241030 -0.066366 0.000000
-0.145269 -0.203462 0.000000
-0.242350 -0.061370 0.000000
-0.141033 -0.206421 0.000000
[...]
POINT_DATA 1240
SCALARS u1 float
LOOKUP_TABLE default
-6e-06
-5e-06
-5e-06
-6e-06
-5e-06
-7e-06
-5e-06
-7e-06
-4e-06
-4e-06
-7e-06
-4e-06
-8e-06
-5e-06
-8e-06
-5e-06
-8e-06
-5e-06
-8e-06
-5e-06
-7e-06
-6e-06
-7e-06
-6e-06
-7e-06
-7e-06
-6e-06
-7e-06
-6e-06
-8e-06
-5e-06
-8e-06
-4e-06
-9e-06
-4e-06
-1e-05
-3e-06
-1e-05
-3e-06
-1e-05
-3e-06
-2e-06
-1e-05
-2e-06
-1e-05
-2e-06
-2e-05
-2e-06
-2e-05
-2e-06
-2e-05
-2e-06
-2e-05
-2e-06
-2e-05
-2e-06
-2e-05
-2e-06
-2e-05
-2e-06
-2e-05
-2e-06
-2e-05
-2e-05
-2e-06
-2e-05
-2e-06
-2e-05
-3e-06
-2e-05
-3e-06
-2e-05
-3e-06
-2e-05
-3e-06
-2e-05
-3e-06
-2e-05
-3e-06
-2e-05
-3e-06
-1e-05
-3e-06
-1e-05
-3e-06
-1e-05
-3e-06
-1e-05
-3e-06
-1e-05
-3e-06
-9e-06
-2e-06
-2e-06
-8e-06
-2e-06
-8e-06
-2e-06
-7e-06
-1e-06
-7e-06
-1e-06
-6e-06
-7e-07
-6e-06
-5e-07
-6e-06
-2e-07
-6e-06
-4e-08
-5e-06
1e-07
-5e-06
2e-07
-5e-06
-5e-06
2e-07
-6e-06
2e-07
-6e-06
1e-07
-6e-06
-1e-08
-7e-06
-2e-07
-7e-06
-4e-07
-8e-06
-6e-07
-8e-06
-8e-07
-9e-06
-9e-07
-9e-06
-1e-06
-9e-06
-1e-06
-9e-06
-1e-06
-9e-06
-1e-06
-9e-06
-1e-06
-8e-06
-1e-06
-8e-06
-1e-06
-1e-06
-7e-06
-1e-06
-7e-06
-1e-06
-6e-06
-1e-06
-6e-06
-7e-07
-5e-06
-5e-07
-5e-06
-8e-08
-4e-06
4e-07
-4e-06
9e-07
-4e-06
1e-06
-4e-06
-4e-06
2e-06
-4e-06
3e-06
-4e-06
3e-06
-4e-06
3e-06
-4e-06
4e-06
-4e-06
4e-06
-4e-06
4e-06
-4e-06
4e-06
-4e-06
4e-06
-4e-06
4e-06
-4e-06
3e-06
-4e-06
3e-06
-5e-06
2e-06
-5e-06
2e-06
-5e-06
1e-06
-5e-06
1e-06
7e-07
-5e-06
5e-07
-5e-06
4e-07
-5e-06
4e-07
-5e-06
5e-07
-5e-06
7e-07
-5e-06
9e-07
-4e-06
1e-06
-4e-06
1e-06
-4e-06
2e-06
-4e-06
2e-06
-3e-06
3e-06
-3e-06
3e-06
-3e-06
4e-06
-3e-06
5e-06
-2e-06
6e-06
-2e-06
7e-06
-2e-06
8e-06
-2e-06
9e-06
-2e-06
1e-05
-2e-06
1e-05
-2e-06
1e-05
-2e-06
1e-05
-2e-06
1e-05
-2e-06
1e-05
-2e-06
2e-05
-2e-06
2e-05
-3e-06
2e-05
-3e-06
2e-05
-3e-06
2e-05
-3e-06
2e-05
-3e-06
1e-05
-3e-06
1e-05
-3e-06
1e-05
-3e-06
1e-05
-3e-06
1e-05
-3e-06
1e-05
-3e-06
1e-05
-3e-06
9e-06
-3e-06
8e-06
-2e-06
6e-06
-2e-06
5e-06
-2e-06
4e-06
-1e-06
4e-06
-6e-07
3e-06
3e-08
2e-06
6e-07
2e-06
1e-06
1e-06
2e-06
8e-07
2e-06
4e-07
2e-06
2e-07
3e-06
-9e-08
3e-06
-3e-07
3e-06
-4e-07
3e-06
-5e-07
2e-06
-4e-07
2e-06
-3e-07
2e-06
-3e-08
1e-06
3e-07
7e-07
-5e-06
-5e-06
-6e-06
-4e-06
-6e-06
-4e-06
-6e-06
-5e-06
-7e-06
-5e-06
-7e-06
-5e-06
-7e-06
-5e-06
-8e-06
-5e-06
-8e-06
-6e-06
-8e-06
-6e-06
-7e-06
-7e-06
-7e-06
-7e-06
-7e-06
-8e-06
-6e-06
-9e-06
-6e-06
-9e-06
-5e-06
-1e-05
-4e-06
-1e-05
-4e-06
-1e-05
-3e-06
-1e-05
-3e-06
-1e-05
-3e-06
-2e-05
-2e-06
-2e-05
-2e-06
-2e-05
-2e-06
-2e-05
-2e-06
-2e-05
-2e-06
-2e-05
-2e-06
-2e-05
-1e-06
-2e-05
-1e-06
-2e-05
-1e-06
-2e-05
-1e-06
-2e-05
-1e-06
-2e-05
-1e-06
-2e-05
-1e-06
-2e-05
-1e-06
-2e-05
-1e-06
-2e-05
-1e-06
-2e-05
-1e-06
-2e-05
-1e-06
-1e-05
-2e-06
-1e-05
-2e-06
-1e-05
-2e-06
-1e-05
-2e-06
-1e-05
-2e-06
-9e-06
-2e-06
-8e-06
-2e-06
-8e-06
-2e-06
-7e-06
-2e-06
-7e-06
-2e-06
-6e-06
-2e-06
-6e-06
-2e-06
-6e-06
-2e-06
-6e-06
-2e-06
-5e-06
-2e-06
-5e-06
-2e-06
-5e-06
-2e-06
-5e-06
-2e-06
-6e-06
-2e-06
-6e-06
-2e-06
-6e-06
-2e-06
-7e-06
-2e-06
-7e-06
-2e-06
-8e-06
-2e-06
-8e-06
-2e-06
-8e-06
-2e-06
-9e-06
-2e-06
-9e-06
-2e-06
-9e-06
-2e-06
-9e-06
-2e-06
-9e-06
-1e-06
-8e-06
-1e-06
-8e-06
-1e-06
-8e-06
-8e-07
-7e-06
-4e-07
-6e-06
-1e-08
-6e-06
5e-07
-5e-06
1e-06
-5e-06
2e-06
-4e-06
2e-06
-4e-06
3e-06
-4e-06
3e-06
-4e-06
3e-06
-3e-06
4e-06
-3e-06
4e-06
-3e-06
4e-06
-3e-06
4e-06
-3e-06
4e-06
-3e-06
3e-06
-3e-06
3e-06
-3e-06
3e-06
-3e-06
2e-06
-3e-06
2e-06
-3e-06
1e-06
-3e-06
9e-07
-3e-06
7e-07
-3e-06
5e-07
-3e-06
4e-07
-3e-06
4e-07
-3e-06
6e-07
-3e-06
8e-07
-3e-06
1e-06
-3e-06
1e-06
-3e-06
2e-06
-3e-06
2e-06
-3e-06
2e-06
-3e-06
3e-06
-3e-06
3e-06
-3e-06
4e-06
-3e-06
5e-06
-3e-06
6e-06
-3e-06
7e-06
-3e-06
8e-06
-3e-06
9e-06
-3e-06
1e-05
-4e-06
1e-05
-4e-06
1e-05
-4e-06
1e-05
-4e-06
1e-05
-4e-06
1e-05
-4e-06
2e-05
-4e-06
2e-05
-4e-06
2e-05
-4e-06
2e-05
-4e-06
2e-05
-3e-06
2e-05
-3e-06
2e-05
-3e-06
1e-05
-3e-06
1e-05
-3e-06
1e-05
-3e-06
1e-05
-3e-06
1e-05
-2e-06
1e-05
-2e-06
9e-06
-1e-06
8e-06
-1e-06
7e-06
-4e-07
5e-06
1e-07
5e-06
7e-07
4e-06
1e-06
3e-06
2e-06
2e-06
2e-06
2e-06
2e-06
1e-06
3e-06
9e-07
3e-06
5e-07
3e-06
2e-07
3e-06
-3e-08
2e-06
-3e-07
2e-06
-4e-07
2e-06
-5e-07
1e-06
-4e-07
6e-07
-3e-07
-7e-08
3e-07
-5e-06
-5e-06
-6e-06
-5e-06
-5e-06
-6e-06
-6e-06
-5e-06
-5e-06
-6e-06
-7e-06
-4e-06
-4e-06
-6e-06
-7e-06
-4e-06
-4e-06
-4e-06
-7e-06
-7e-06
-4e-06
-5e-06
-7e-06
-8e-06
-5e-06
-5e-06
-7e-06
-8e-06
-5e-06
-5e-06
-8e-06
-8e-06
-5e-06
-5e-06
-8e-06
-8e-06
-6e-06
-6e-06
-8e-06
-7e-06
-6e-06
-6e-06
-7e-06
-7e-06
-6e-06
-6e-06
-7e-06
-7e-06
-7e-06
-7e-06
-7e-06
-6e-06
-7e-06
-7e-06
-6e-06
-6e-06
-8e-06
-8e-06
-6e-06
-5e-06
-9e-06
-9e-06
-5e-06
-4e-06
-1e-05
-1e-05
-4e-06
-4e-06
-1e-05
-1e-05
-4e-06
-3e-06
-1e-05
-1e-05
-3e-06
-3e-06
-1e-05
-1e-05
-3e-06
-3e-06
-2e-06
-1e-05
-1e-05
-3e-06
-2e-06
-2e-05
-2e-05
-2e-06
-2e-06
-2e-05
-2e-05
-2e-06
-2e-06
-2e-05
-2e-05
-2e-06
-2e-06
-2e-05
-2e-05
-2e-06
-2e-06
-2e-05
-2e-05
-2e-06
-2e-06
-2e-05
-2e-05
-2e-06
-2e-06
-2e-05
-2e-05
-2e-06
-2e-06
-2e-05
-2e-05
-2e-06
-2e-06
-2e-05
-2e-05
-2e-06
-2e-06
-2e-05
-2e-05
-2e-05
-2e-06
-2e-06
-2e-05
-2e-05
-2e-06
-2e-06
-2e-05
-2e-05
-2e-06
-2e-06
-2e-05
-2e-05
-2e-06
-2e-06
-2e-05
-2e-05
-2e-06
-2e-06
-2e-05
-2e-05
-2e-06
-3e-06
-2e-05
-2e-05
-2e-06
-3e-06
-2e-05
-2e-05
-2e-06
-3e-06
-2e-05
-1e-05
-2e-06
-3e-06
-1e-05
-1e-05
-2e-06
-3e-06
-1e-05
-1e-05
-2e-06
-3e-06
-1e-05
-1e-05
-2e-06
-3e-06
-1e-05
-1e-05
-2e-06
-2e-06
-1e-05
-1e-05
-2e-06
-2e-06
-9e-06
-9e-06
-2e-06
-2e-06
-2e-06
-9e-06
-8e-06
-2e-06
-2e-06
-8e-06
-8e-06
-2e-06
-2e-06
-7e-06
-7e-06
-2e-06
-1e-06
-7e-06
-7e-06
-1e-06
-1e-06
-7e-06
-6e-06
-1e-06
-9e-07
-6e-06
-6e-06
-1e-06
-8e-07
-6e-06
-6e-06
-1e-06
-6e-07
-6e-06
-6e-06
-1e-06
-5e-07
-6e-06
-5e-06
-1e-06
-5e-07
-5e-06
-5e-06
-1e-06
-4e-07
-5e-06
-5e-06
-5e-06
-1e-06
-5e-07
-5e-06
-6e-06
-1e-06
-5e-07
-6e-06
-6e-06
-1e-06
-6e-07
-6e-06
-6e-06
-1e-06
-8e-07
-6e-06
-7e-06
-1e-06
-9e-07
-7e-06
-7e-06
-2e-06
-1e-06
-7e-06
-8e-06
-2e-06
-1e-06
-8e-06
-8e-06
-2e-06
-1e-06
-8e-06
-8e-06
-2e-06
-1e-06
-8e-06
-9e-06
-2e-06
-1e-06
-9e-06
-9e-06
-2e-06
-1e-06
-9e-06
-9e-06
-2e-06
-1e-06
-9e-06
-9e-06
-2e-06
-1e-06
-9e-06
-9e-06
-2e-06
-1e-06
-9e-06
-8e-06
-1e-06
-1e-06
-8e-06
-8e-06
-1e-06
-1e-06
-1e-06
-8e-06
-7e-06
-1e-06
-1e-06
-8e-06
-7e-06
-1e-06
-1e-06
-7e-06
-6e-06
-7e-07
-7e-07
-6e-06
-6e-06
-4e-07
-4e-07
-6e-06
-5e-06
-9e-09
-3e-08
-5e-06
-5e-06
4e-07
4e-07
-5e-06
-5e-06
1e-06
9e-07
-5e-06
-4e-06
2e-06
1e-06
-4e-06
-4e-06
2e-06
2e-06
-4e-06
-4e-06
-4e-06
3e-06
3e-06
-4e-06
-4e-06
3e-06
3e-06
-4e-06
-4e-06
3e-06
3e-06
-3e-06
-4e-06
4e-06
4e-06
-3e-06
-4e-06
4e-06
4e-06
-3e-06
-3e-06
4e-06
4e-06
-3e-06
-3e-06
4e-06
4e-06
-3e-06
-4e-06
4e-06
4e-06
-3e-06
-4e-06
3e-06
4e-06
-3e-06
-4e-06
3e-06
3e-06
-3e-06
-4e-06
3e-06
3e-06
-3e-06
-4e-06
2e-06
2e-06
-3e-06
-4e-06
2e-06
2e-06
-3e-06
-4e-06
1e-06
1e-06
-4e-06
-4e-06
9e-07
9e-07
-4e-06
-4e-06
6e-07
7e-07
5e-07
-4e-06
-4e-06
5e-07
4e-07
-4e-06
-4e-06
4e-07
4e-07
-4e-06
-4e-06
5e-07
5e-07
-4e-06
-4e-06
6e-07
7e-07
-4e-06
-4e-06
8e-07
9e-07
-4e-06
-4e-06
1e-06
1e-06
-4e-06
-4e-06
1e-06
1e-06
-4e-06
-4e-06
2e-06
2e-06
-4e-06
-4e-06
2e-06
2e-06
-3e-06
-3e-06
2e-06
3e-06
-3e-06
-3e-06
-3e-06
3e-06
3e-06
-3e-06
-3e-06
4e-06
4e-06
-3e-06
-3e-06
4e-06
5e-06
-3e-06
-3e-06
5e-06
6e-06
-3e-06
-2e-06
6e-06
7e-06
-3e-06
-2e-06
7e-06
8e-06
-3e-06
-2e-06
8e-06
9e-06
-3e-06
-2e-06
1e-05
1e-05
-3e-06
-2e-06
1e-05
1e-05
-3e-06
-2e-06
1e-05
1e-05
-3e-06
-2e-06
1e-05
1e-05
-3e-06
-2e-06
1e-05
1e-05
-3e-06
-3e-06
1e-05
1e-05
-3e-06
-3e-06
1e-05
1e-05
-3e-06
-3e-06
2e-05
2e-05
2e-05
-3e-06
-3e-06
2e-05
2e-05
-3e-06
-3e-06
2e-05
2e-05
-3e-06
-3e-06
2e-05
2e-05
-3e-06
-3e-06
2e-05
2e-05
-3e-06
-3e-06
2e-05
1e-05
-3e-06
-3e-06
1e-05
1e-05
-3e-06
-3e-06
1e-05
1e-05
-3e-06
-3e-06
1e-05
1e-05
-3e-06
-3e-06
1e-05
1e-05
-3e-06
-3e-06
1e-05
1e-05
-3e-06
-3e-06
1e-05
1e-05
-2e-06
-2e-06
9e-06
8e-06
-2e-06
-2e-06
8e-06
7e-06
-1e-06
-2e-06
7e-06
6e-06
-1e-06
-2e-06
6e-06
5e-06
-5e-07
-1e-06
5e-06
4e-06
1e-07
-5e-07
4e-06
3e-06
7e-07
6e-08
3e-06
3e-06
1e-06
6e-07
2e-06
2e-06
2e-06
1e-06
2e-06
1e-06
2e-06
2e-06
1e-06
1e-06
2e-06
2e-06
9e-07
7e-07
3e-06
2e-06
6e-07
4e-07
3e-06
3e-06
3e-07
9e-08
3e-06
3e-06
2e-08
-2e-07
3e-06
3e-06
-2e-07
-3e-07
2e-06
3e-06
-4e-07
-5e-07
2e-06
2e-06
-5e-07
-5e-07
2e-06
2e-06
-4e-07
-4e-07
1e-06
2e-06
-3e-07
-3e-07
7e-07
-6e-08
3e-07
1e-06
-5e-08
7e-07
3e-07
SCALARS u2 float
LOOKUP_TABLE default
-1e-06
-2e-06
-9e-07
-2e-06
-7e-07
-2e-06
-4e-07
-3e-06
-3e-07
-2e-07
-3e-06
-2e-07
-4e-06
-2e-07
-4e-06
-1e-07
-5e-06
-1e-07
-5e-06
-1e-07
-5e-06
-2e-07
-5e-06
-2e-07
-5e-06
-3e-07
-5e-06
-5e-07
-5e-06
-6e-07
-5e-06
-8e-07
-4e-06
-1e-06
-4e-06
-1e-06
-3e-06
-1e-06
-3e-06
-2e-06
-2e-06
-2e-06
-2e-06
-2e-06
-2e-06
-2e-06
-2e-06
-2e-06
-2e-06
-2e-06
-1e-06
-2e-06
-1e-06
-2e-06
-1e-06
-3e-06
-7e-07
-3e-06
-5e-07
-3e-06
-2e-07
-4e-06
1e-07
5e-07
-4e-06
7e-07
-5e-06
1e-06
-5e-06
1e-06
-6e-06
1e-06
-7e-06
2e-06
-8e-06
2e-06
-9e-06
2e-06
-1e-05
2e-06
-1e-05
2e-06
-1e-05
2e-06
-1e-05
2e-06
-1e-05
2e-06
-2e-05
1e-06
-2e-05
1e-06
-2e-05
-2e-05
1e-06
-2e-05
9e-07
-2e-05
7e-07
-2e-05
7e-07
-2e-05
6e-07
-2e-05
6e-07
-2e-05
6e-07
-2e-05
6e-07
-1e-05
6e-07
-1e-05
7e-07
-1e-05
7e-07
8e-07
-1e-05
1e-06
-1e-05
1e-06
-9e-06
2e-06
-8e-06
2e-06
-7e-06
2e-06
-6e-06
3e-06
-5e-06
4e-06
-4e-06
4e-06
-4e-06
5e-06
-3e-06
5e-06
-3e-06
6e-06
-2e-06
6e-06
-2e-06
6e-06
-2e-06
6e-06
-1e-06
6e-06
-1e-06
-1e-06
6e-06
-9e-07
6e-06
-1e-06
6e-06
-1e-06
5e-06
-1e-06
5e-06
-2e-06
4e-06
-2e-06
4e-06
-3e-06
3e-06
-3e-06
3e-06
-3e-06
3e-06
3e-06
-4e-06
3e-06
-4e-06
3e-06
-4e-06
3e-06
-4e-06
4e-06
-4e-06
4e-06
-4e-06
4e-06
-4e-06
5e-06
-3e-06
5e-06
-3e-06
6e-06
-2e-06
6e-06
-1e-06
7e-06
-9e-07
8e-06
-3e-07
9e-06
1e-07
1e-05
5e-07
1e-05
9e-07
1e-06
1e-05
1e-06
1e-05
1e-06
1e-05
1e-06
2e-05
1e-06
2e-05
1e-06
2e-05
2e-06
2e-05
2e-06
2e-05
1e-06
2e-05
1e-06
2e-05
1e-06
2e-05
1e-06
2e-05
1e-06
2e-05
9e-07
2e-05
7e-07
2e-05
5e-07
2e-05
4e-07
2e-05
2e-07
2e-05
2e-07
1e-05
1e-07
1e-05
2e-07
1e-05
3e-07
1e-05
4e-07
1e-05
6e-07
9e-06
9e-07
8e-06
1e-06
8e-06
1e-06
7e-06
2e-06
6e-06
2e-06
6e-06
2e-06
5e-06
3e-06
5e-06
3e-06
5e-06
3e-06
4e-06
3e-06
4e-06
3e-06
4e-06
4e-06
4e-06
4e-06
4e-06
4e-06
4e-06
4e-06
4e-06
4e-06
4e-06
3e-06
5e-06
3e-06
5e-06
3e-06
6e-06
3e-06
6e-06
3e-06
7e-06
3e-06
7e-06
2e-06
7e-06
2e-06
8e-06
2e-06
8e-06
2e-06
7e-06
2e-06
7e-06
2e-06
7e-06
2e-06
7e-06
2e-06
6e-06
2e-06
6e-06
2e-06
5e-06
3e-06
4e-06
3e-06
4e-06
3e-06
3e-06
-2e-06
-1e-06
-3e-06
-1e-06
-4e-06
-6e-07
-4e-06
-3e-07
-5e-06
-1e-07
-5e-06
3e-08
-5e-06
1e-07
-5e-06
2e-07
-5e-06
3e-07
-5e-06
4e-07
-5e-06
5e-07
-5e-06
6e-07
-5e-06
6e-07
-4e-06
7e-07
-4e-06
7e-07
-3e-06
7e-07
-3e-06
6e-07
-2e-06
6e-07
-2e-06
5e-07
-2e-06
4e-07
-2e-06
3e-07
-2e-06
3e-07
-2e-06
2e-07
-2e-06
2e-07
-2e-06
1e-07
-3e-06
1e-07
-3e-06
2e-07
-3e-06
2e-07
-4e-06
2e-07
-4e-06
2e-07
-5e-06
2e-07
-6e-06
2e-07
-6e-06
2e-07
-7e-06
2e-07
-8e-06
2e-07
-9e-06
1e-07
-1e-05
3e-08
-1e-05
-4e-08
-1e-05
-1e-07
-1e-05
-2e-07
-1e-05
-2e-07
-2e-05
-2e-07
-2e-05
-2e-07
-2e-05
-2e-07
-2e-05
-2e-07
-2e-05
-1e-07
-2e-05
-1e-08
-2e-05
8e-08
-2e-05
2e-07
-2e-05
3e-07
-2e-05
4e-07
-2e-05
5e-07
-1e-05
7e-07
-1e-05
9e-07
-1e-05
1e-06
-1e-05
2e-06
-1e-05
2e-06
-9e-06
3e-06
-8e-06
3e-06
-7e-06
4e-06
-6e-06
4e-06
-5e-06
5e-06
-4e-06
5e-06
-4e-06
6e-06
-3e-06
6e-06
-3e-06
6e-06
-2e-06
6e-06
-2e-06
6e-06
-2e-06
6e-06
-1e-06
6e-06
-1e-06
5e-06
-1e-06
5e-06
-9e-07
5e-06
-1e-06
4e-06
-1e-06
4e-06
-1e-06
3e-06
-2e-06
3e-06
-2e-06
3e-06
-3e-06
3e-06
-3e-06
3e-06
-3e-06
3e-06
-4e-06
3e-06
-4e-06
4e-06
-4e-06
4e-06
-4e-06
4e-06
-4e-06
5e-06
-4e-06
5e-06
-4e-06
6e-06
-3e-06
6e-06
-3e-06
7e-06
-2e-06
8e-06
-2e-06
9e-06
-1e-06
1e-05
-4e-07
1e-05
6e-08
1e-05
5e-07
1e-05
9e-07
1e-05
1e-06
2e-05
1e-06
2e-05
2e-06
2e-05
2e-06
2e-05
2e-06
2e-05
2e-06
2e-05
2e-06
2e-05
2e-06
2e-05
2e-06
2e-05
2e-06
2e-05
2e-06
2e-05
2e-06
2e-05
2e-06
2e-05
2e-06
2e-05
2e-06
2e-05
2e-06
1e-05
2e-06
1e-05
2e-06
1e-05
2e-06
1e-05
2e-06
1e-05
2e-06
9e-06
2e-06
9e-06
2e-06
8e-06
2e-06
7e-06
2e-06
6e-06
2e-06
6e-06
2e-06
5e-06
2e-06
5e-06
2e-06
5e-06
2e-06
5e-06
2e-06
4e-06
2e-06
4e-06
2e-06
4e-06
2e-06
4e-06
2e-06
4e-06
2e-06
4e-06
2e-06
4e-06
1e-06
5e-06
1e-06
5e-06
1e-06
6e-06
1e-06
6e-06
1e-06
7e-06
2e-06
7e-06
2e-06
7e-06
2e-06
7e-06
2e-06
7e-06
2e-06
7e-06
2e-06
7e-06
2e-06
7e-06
2e-06
7e-06
2e-06
6e-06
3e-06
6e-06
3e-06
5e-06
3e-06
4e-06
4e-06
-1e-06
-2e-06
-2e-06
-1e-06
-1e-06
-2e-06
-2e-06
-1e-06
-7e-07
-3e-06
-3e-06
-7e-07
-4e-07
-3e-06
-3e-06
-4e-07
-3e-07
-2e-07
-4e-06
-4e-06
-2e-07
-1e-07
-4e-06
-4e-06
-7e-08
-7e-08
-5e-06
-5e-06
2e-08
-3e-08
-5e-06
-5e-06
1e-07
6e-09
-5e-06
-5e-06
2e-07
2e-08
-5e-06
-5e-06
2e-07
1e-08
-5e-06
-5e-06
2e-07
-1e-08
-5e-06
-5e-06
3e-07
-6e-08
-5e-06
-5e-06
3e-07
-1e-07
-5e-06
-5e-06
2e-07
-3e-07
-4e-06
-4e-06
2e-07
-4e-07
-4e-06
-4e-06
1e-07
-5e-07
-3e-06
-3e-06
4e-08
-6e-07
-3e-06
-3e-06
-5e-08
-8e-07
-2e-06
-2e-06
-1e-07
-9e-07
-2e-06
-2e-06
-2e-06
-2e-07
-9e-07
-2e-06
-2e-06
-3e-07
-1e-06
-2e-06
-2e-06
-3e-07
-9e-07
-2e-06
-2e-06
-3e-07
-9e-07
-2e-06
-2e-06
-3e-07
-8e-07
-2e-06
-2e-06
-3e-07
-6e-07
-2e-06
-3e-06
-2e-07
-5e-07
-3e-06
-3e-06
-1e-07
-3e-07
-3e-06
-3e-06
-1e-08
-1e-07
-3e-06
-4e-06
1e-07
1e-07
-4e-06
-4e-06
3e-07
2e-07
5e-07
-4e-06
-5e-06
4e-07
6e-07
-5e-06
-5e-06
4e-07
8e-07
-6e-06
-6e-06
5e-07
1e-06
-7e-06
-7e-06
6e-07
1e-06
-8e-06
-8e-06
7e-07
1e-06
-9e-06
-9e-06
7e-07
1e-06
-1e-05
-1e-05
7e-07
1e-06
-1e-05
-1e-05
6e-07
1e-06
-1e-05
-1e-05
6e-07
1e-06
-1e-05
-1e-05
5e-07
1e-06
-1e-05
-1e-05
4e-07
1e-06
-1e-05
-2e-05
4e-07
9e-07
-2e-05
-2e-05
3e-07
8e-07
-2e-05
-2e-05
2e-07
6e-07
-2e-05
-2e-05
-2e-05
2e-07
5e-07
-2e-05
-2e-05
2e-07
5e-07
-2e-05
-2e-05
2e-07
4e-07
-2e-05
-2e-05
2e-07
4e-07
-2e-05
-2e-05
3e-07
4e-07
-2e-05
-2e-05
3e-07
5e-07
-2e-05
-2e-05
4e-07
5e-07
-2e-05
-1e-05
5e-07
6e-07
-1e-05
-1e-05
6e-07
7e-07
-1e-05
-1e-05
7e-07
7e-07
-1e-05
-1e-05
1e-06
9e-07
1e-06
-1e-05
-1e-05
1e-06
1e-06
-1e-05
-1e-05
2e-06
2e-06
-9e-06
-9e-06
2e-06
2e-06
-8e-06
-8e-06
3e-06
2e-06
-7e-06
-6e-06
3e-06
3e-06
-6e-06
-6e-06
4e-06
4e-06
-5e-06
-5e-06
4e-06
4e-06
-4e-06
-4e-06
5e-06
5e-06
-4e-06
-3e-06
5e-06
5e-06
-3e-06
-3e-06
6e-06
6e-06
-3e-06
-2e-06
6e-06
6e-06
-2e-06
-2e-06
6e-06
6e-06
-2e-06
-2e-06
6e-06
6e-06
-2e-06
-2e-06
6e-06
6e-06
-1e-06
-1e-06
6e-06
6e-06
-1e-06
-1e-06
-1e-06
6e-06
6e-06
-1e-06
-9e-07
6e-06
6e-06
-9e-07
-1e-06
5e-06
5e-06
-1e-06
-1e-06
5e-06
5e-06
-1e-06
-1e-06
4e-06
4e-06
-1e-06
-2e-06
4e-06
4e-06
-2e-06
-2e-06
3e-06
3e-06
-2e-06
-3e-06
3e-06
3e-06
-3e-06
-3e-06
3e-06
3e-06
-3e-06
-3e-06
3e-06
3e-06
3e-06
-3e-06
-4e-06
3e-06
3e-06
-4e-06
-4e-06
3e-06
3e-06
-4e-06
-4e-06
4e-06
4e-06
-4e-06
-4e-06
4e-06
4e-06
-4e-06
-4e-06
4e-06
4e-06
-4e-06
-4e-06
4e-06
5e-06
-4e-06
-4e-06
5e-06
5e-06
-4e-06
-3e-06
5e-06
5e-06
-3e-06
-3e-06
6e-06
6e-06
-3e-06
-2e-06
7e-06
7e-06
-2e-06
-1e-06
7e-06
8e-06
-2e-06
-9e-07
8e-06
9e-06
-9e-07
-4e-07
9e-06
1e-05
-4e-07
9e-08
1e-05
1e-05
7e-08
5e-07
1e-05
1e-05
5e-07
8e-07
1e-06
1e-05
1e-05
9e-07
1e-06
1e-05
1e-05
1e-06
1e-06
1e-05
2e-05
1e-06
1e-06
2e-05
2e-05
1e-06
2e-06
2e-05
2e-05
2e-06
2e-06
2e-05
2e-05
2e-06
2e-06
2e-05
2e-05
2e-06
2e-06
2e-05
2e-05
2e-06
2e-06
2e-05
2e-05
2e-06
2e-06
2e-05
2e-05
2e-06
2e-06
2e-05
2e-05
2e-05
2e-06
2e-06
2e-05
2e-05
2e-06
1e-06
2e-05
2e-05
2e-06
1e-06
2e-05
2e-05
2e-06
1e-06
2e-05
2e-05
2e-06
1e-06
2e-05
2e-05
2e-06
1e-06
2e-05
2e-05
2e-06
9e-07
2e-05
1e-05
2e-06
8e-07
1e-05
1e-05
1e-06
8e-07
1e-05
1e-05
1e-06
8e-07
1e-05
1e-05
1e-06
9e-07
1e-05
1e-05
1e-06
1e-06
1e-05
9e-06
1e-06
1e-06
9e-06
8e-06
2e-06
1e-06
8e-06
7e-06
2e-06
1e-06
2e-06
7e-06
7e-06
2e-06
2e-06
6e-06
6e-06
2e-06
2e-06
6e-06
6e-06
2e-06
2e-06
6e-06
5e-06
2e-06
2e-06
5e-06
5e-06
2e-06
3e-06
5e-06
5e-06
2e-06
3e-06
5e-06
4e-06
2e-06
3e-06
4e-06
4e-06
2e-06
3e-06
4e-06
4e-06
2e-06
3e-06
4e-06
4e-06
2e-06
3e-06
4e-06
4e-06
2e-06
3e-06
4e-06
4e-06
2e-06
3e-06
4e-06
4e-06
2e-06
3e-06
4e-06
4e-06
2e-06
3e-06
5e-06
5e-06
2e-06
3e-06
5e-06
5e-06
2e-06
2e-06
6e-06
6e-06
2e-06
2e-06
6e-06
6e-06
2e-06
2e-06
7e-06
7e-06
2e-06
2e-06
7e-06
7e-06
2e-06
2e-06
7e-06
7e-06
2e-06
2e-06
7e-06
7e-06
2e-06
2e-06
8e-06
8e-06
2e-06
2e-06
7e-06
7e-06
2e-06
2e-06
7e-06
7e-06
2e-06
2e-06
7e-06
7e-06
2e-06
2e-06
7e-06
7e-06
2e-06
2e-06
6e-06
6e-06
3e-06
2e-06
6e-06
6e-06
3e-06
3e-06
5e-06
5e-06
3e-06
3e-06
4e-06
3e-06
4e-06
4e-06
3e-06
4e-06
3e-06
SCALARS strain_1 float
LOOKUP_TABLE default
-0.000009
-0.000007
-0.000006
-0.000007
-0.000007
-0.000011
-0.000007
-0.000008
-0.000013
-0.000012
-0.000012
-0.000015
-0.000017
-0.000018
-0.000024
-0.000015
-0.000036
-0.000016
-0.000044
-0.000015
-0.000056
-0.000009
-0.000073
-0.000005
-0.000088
0.000000
-0.000106
0.000014
-0.000128
0.000026
-0.000157
0.000038
-0.000182
0.000056
-0.000217
0.000075
-0.000253
0.000096
-0.000289
0.000124
-0.000328
-0.000372
0.000154
-0.000418
0.000186
-0.000467
0.000225
-0.000519
0.000262
-0.000573
0.000306
-0.000633
0.000356
-0.000693
0.000407
-0.000758
0.000466
-0.000821
0.000523
-0.000892
0.000584
-0.000962
0.000653
0.000725
-0.001036
0.000798
-0.001107
0.000876
-0.001190
0.000960
-0.001266
0.001041
-0.001345
0.001131
-0.001428
0.001220
-0.001510
0.001314
-0.001592
0.001409
-0.001678
0.001508
-0.001767
0.001608
-0.001852
0.001703
-0.001934
0.001810
-0.002023
0.001913
-0.002109
0.002019
-0.002197
-0.002277
0.002120
-0.002360
0.002227
-0.002451
0.002333
-0.002528
0.002433
-0.002612
0.002543
-0.002690
0.002645
-0.002765
0.002745
-0.002842
0.002844
-0.002915
0.002939
-0.002984
0.003037
-0.003053
0.003127
0.003217
-0.003114
0.003302
-0.003178
0.003386
-0.003234
0.003466
-0.003290
0.003540
-0.003342
0.003609
-0.003386
0.003671
-0.003430
0.003736
-0.003472
0.003791
-0.003505
0.003839
-0.003536
0.003889
-0.003563
0.003925
-0.003589
0.003960
-0.003607
0.003990
-0.003618
0.004012
-0.003628
0.004034
-0.003635
-0.003633
0.004040
-0.003634
0.004050
-0.003620
0.004048
-0.003611
0.004047
-0.003592
0.004034
-0.003572
0.004012
-0.003546
0.003995
-0.003519
0.003969
-0.003485
0.003941
-0.003451
0.003902
0.003859
-0.003410
0.003811
-0.003362
0.003759
-0.003318
0.003705
-0.003269
0.003646
-0.003213
0.003583
-0.003151
0.003515
-0.003095
0.003449
-0.003032
0.003371
-0.002965
0.003292
-0.002897
0.003217
-0.002829
0.003131
-0.002760
0.003050
-0.002688
0.002967
-0.002607
0.002879
-0.002537
0.002788
-0.002461
-0.002377
0.002701
-0.002296
0.002611
-0.002223
0.002525
-0.002143
0.002428
-0.002054
0.002338
-0.001978
0.002244
-0.001902
0.002151
-0.001816
0.002063
-0.001741
0.001973
-0.001658
0.001883
-0.001584
0.001798
-0.001508
0.001709
-0.001433
0.001620
-0.001360
0.001537
-0.001284
0.001455
-0.001213
0.001371
-0.001144
0.001293
-0.001080
0.001219
-0.001012
0.001145
-0.000944
0.001070
-0.000885
0.001003
-0.000826
0.000932
-0.000765
0.000863
-0.000712
0.000800
-0.000654
0.000746
-0.000605
0.000688
-0.000556
0.000631
-0.000511
0.000578
-0.000465
0.000529
-0.000421
0.000480
-0.000381
0.000434
-0.000347
0.000394
-0.000311
0.000356
-0.000276
0.000316
-0.000245
0.000285
-0.000214
0.000251
-0.000193
0.000220
-0.000170
0.000193
-0.000140
0.000168
-0.000126
0.000142
-0.000106
0.000123
-0.000091
0.000101
-0.000076
0.000090
-0.000057
0.000070
-0.000048
0.000060
-0.000041
0.000045
-0.000033
0.000033
-0.000025
0.000024
-0.000021
0.000019
-0.000015
0.000012
-0.000009
0.000005
-0.000006
0.000002
-0.000005
0.000001
-0.000003
0.000001
-0.000004
-0.000004
-0.000003
-0.000001
-0.000004
-0.000007
-0.000006
-0.000006
-0.000003
-0.000006
-0.000007
-0.000006
-0.000007
-0.000012
-0.000008
-0.000014
-0.000011
-0.000014
-0.000011
-0.000014
-0.000019
-0.000018
-0.000025
-0.000017
-0.000034
-0.000013
-0.000045
-0.000016
-0.000057
-0.000009
-0.000071
-0.000005
-0.000094
-0.000001
-0.000111
0.000011
-0.000133
0.000023
-0.000159
0.000037
-0.000189
0.000055
-0.000218
0.000075
-0.000252
0.000098
-0.000290
0.000123
-0.000332
0.000149
-0.000372
0.000186
-0.000418
0.000219
-0.000467
0.000258
-0.000521
0.000302
-0.000573
0.000348
-0.000631
0.000403
-0.000690
0.000455
-0.000749
0.000511
-0.000813
0.000574
-0.000884
0.000636
-0.000948