<?xml version="1.0" encoding="UTF-8"?>
<VTKFile type="UnstructuredGrid" version="0.1" byte_order="LittleEndian">
<UnstructuredGrid>
<Piece NumberOfPoints="9300" NumberOfCells="16740">
<PointData>
<DataArray type="Float64" Name="u1" Format="ascii">
4.9952936902046525E-6
4.999129805780839E-6
5.003045234111623E-6
5.007039975197005E-6
5.109644893869402E-6
5.112510369657096E-6
5.115455158199389E-6
5.2230834368255E-6
5.224978272824703E-6
5.335609319072946E-6
5.3345026669853836E-6
5.3347309939052334E-6
5.335099877934422E-6
5.448464508731182E-6
5.447743087552402E-6
5.447162223482959E-6
5.561473073689435E-6
5.5598019044120254E-6
5.673528361860141E-6
4.987301361350497E-6
4.9854390254322995E-6
4.98375455077104E-6
4.982247937366719E-6
4.870174701878768E-6
4.8673139651888304E-6
4.864631089755829E-6
4.752096445148024E-6
4.7482373076863445E-6
4.633066591158263E-6
4.66424504112517E-6
4.672136882197844E-6
4.680039362826974E-6
4.6879524830125585E-6
4.77941022171736E-6
4.7862933051956045E-6
4.793187028230303E-6
4.893675199741304E-6
4.89954952562512E-6
4.646868525317383E-6
4.6421360301538115E-6
4.637535385434105E-6
4.530252452717438E-6
4.5245082689576E-6
4.5188959356416235E-6
4.412726301122722E-6
4.405970428766614E-6
4.294290070533232E-6
5.684276376436892E-6
5.680488807465287E-6
5.676906135939704E-6
5.797360427588529E-6
5.792665591229055E-6
5.788175652315602E-6
5.909490459662789E-6
5.903888355915447E-6
6.020666472659671E-6
5.3378242279462915E-6
5.338884687812922E-6
5.340170863050375E-6
5.341682753658649E-6
5.220296157185173E-6
5.2203706898975355E-6
5.220670937980718E-6
5.101770726991982E-6
5.100859332550075E-6
4.343154944432977E-6
4.354986491269636E-6
4.366760013121319E-6
4.3784755099880255E-6
4.458958300360688E-6
4.469751654033488E-6
4.48048698272131E-6
4.573890813220548E-6
4.583645973729488E-6
4.313126523768313E-6
4.306732677640191E-6
4.300453859895165E-6
4.1983101612462045E-6
4.190905135866128E-6
4.183615138869144E-6
4.082622776633524E-6
4.07420657200149E-6
3.966064369930269E-6
6.040695190380364E-6
6.033763092986445E-6
6.027086853746214E-6
6.153755073120639E-6
6.145931362475538E-6
6.138363509984124E-6
6.2658187260529385E-6
6.257103402156655E-6
6.376886149177263E-6
5.695993286512498E-6
5.700782964378209E-6
5.705858673670537E-6
5.7112204143894795E-6
5.578897969853164E-6
5.582738488230387E-6
5.586865038034224E-6
5.460794458901882E-6
5.463685817790615E-6
4.030025457787604E-6
4.046403218565072E-6
4.062638904470381E-6
4.078732515503531E-6
4.1469750394347465E-6
4.162298414710045E-6
4.177479715113184E-6
4.263125056834887E-6
4.277394046608017E-6
3.992386670966953E-6
3.983534558541191E-6
3.974760458195629E-6
3.878594733061865E-6
3.868725132138757E-6
3.858933543295849E-6
3.7639773669712344E-6
3.753090277550782E-6
3.6485345726950633E-6
6.408348292509452E-6
6.397542857029253E-6
6.387055475918525E-6
6.520593541157441E-6
6.508931326467609E-6
6.497587166147242E-6
6.631826840068733E-6
6.6193078461692645E-6
6.7420481892433265E-6
6.063553687236371E-6
6.072253362950498E-6
6.081303453666092E-6
6.090703959383153E-6
5.947131753960942E-6
5.9549197035042975E-6
5.963058068049118E-6
5.829687329678645E-6
5.836563553051228E-6
3.730510892681541E-6
3.7501479497688527E-6
3.769591325752618E-6
3.788841020632836E-6
3.847323350276302E-6
3.865901341321812E-6
3.8842856512637745E-6
3.963397224550298E-6
3.980916149554007E-6
3.5274959626141655E-6
3.52090623778187E-6
3.514710442313952E-6
3.5089085762104087E-6
3.615153019663462E-6
3.607888586638E-6
3.6010180829769145E-6
3.702268039003019E-6
3.6943288977843907E-6
3.6638875324705533E-6
3.658578882500334E-6
3.6534612292418373E-6
3.5573165228200535E-6
3.5510589585044405E-6
3.544992390900549E-6
3.4499642652083043E-6
3.4427577865472975E-6
3.3418307596353067E-6
6.78488523180017E-6
6.770224996136251E-6
6.755945981950636E-6
6.896295449027912E-6
6.880810019738086E-6
6.865705811926565E-6
7.006669827885192E-6
6.990359204969462E-6
7.1160083683720135E-6
6.441424352780395E-6
6.453862330592603E-6
6.466711442123165E-6
6.479971687372079E-6
6.325559840365359E-6
6.337119395068576E-6
6.3490900834901445E-6
6.208653042566279E-6
6.219334174160504E-6
3.283214541877033E-6
3.267626697266365E-6
3.25290708308016E-6
3.2390556993184166E-6
3.3593009016312157E-6
3.3431145493939965E-6
3.327796427581239E-6
3.434532246409008E-6
3.4177473865452373E-6
3.375144167437327E-6
3.3638776879713504E-6
3.35277321870401E-6
3.2666723276334283E-6
3.254213161892372E-6
3.241916006349951E-6
3.156989098079315E-6
3.1433372460631788E-6
3.046094478774988E-6
7.168910822652066E-6
7.150841094093695E-6
7.13320694266701E-6
7.279877827427885E-6
7.261008127109752E-6
7.242574003923303E-6
7.389780216902473E-6
7.370110544824577E-6
7.49861799107583E-6
6.828612297108664E-6
6.8448877811672135E-6
6.861636241676444E-6
6.878857678636355E-6
6.713458035048912E-6
6.728890880974528E-6
6.744796703350825E-6
6.59724449847005E-6
6.611834706262735E-6
3.0082693979916332E-6
2.997894272004469E-6
2.9882655852965753E-6
2.979383337867952E-6
3.086035344979498E-6
3.075003812754246E-6
3.0647187198082637E-6
3.1629641120884255E-6
3.1512761736250854E-6
3.0464530844550833E-6
3.045900098231598E-6
3.0457805630048997E-6
2.9522746745142336E-6
2.9508490468716994E-6
2.949856870225951E-6
2.8572674836285828E-6
2.854969214566999E-6
2.7614315117981308E-6
7.5651685409160685E-6
7.542478234948405E-6
7.520294718334992E-6
7.674407797708233E-6
7.65097141415435E-6
7.628041819954714E-6
7.782593910977977E-6
7.758411449837872E-6
7.8897268807253E-6
7.225332074452402E-6
7.24541720933981E-6
7.266036866038235E-6
7.2871910445476775E-6
7.11091930540716E-6
7.130196692465905E-6
7.150008601335663E-6
6.995427840135144E-6
7.013897479365224E-6
2.7389888166253407E-6
2.7353828316672165E-6
2.732383946855951E-6
2.729992162191543E-6
2.819998629489768E-6
2.815640026673586E-6
2.81188852400426E-6
2.900130136570639E-6
2.895018915896397E-6
2.755374218749086E-6
2.7567953953069994E-6
2.758814492990014E-6
2.667133574470079E-6
2.667724810369552E-6
2.668913967394126E-6
2.577999895367313E-6
2.5777611906083456E-6
2.487973181440788E-6
7.965358591332384E-6
7.939593428508827E-6
7.914382858306465E-6
8.07438277067484E-6
8.047892861111622E-6
8.021957544169598E-6
8.182322512695641E-6
8.15510785639276E-6
8.289177817394782E-6
7.630863210393527E-6
7.65490930899226E-6
7.679553841192143E-6
7.704796806993175E-6
7.5174010281919005E-6
7.540677355144174E-6
7.564552115697594E-6
7.402843639576617E-6
7.425350194882429E-6
2.4878318526533056E-6
2.488355670844061E-6
2.489405681966609E-6
2.49098188602095E-6
2.569414584304443E-6
2.5691471259771015E-6
2.569405860581552E-6
2.6501346874838553E-6
2.649075952638417E-6
2.4865705289551926E-6
2.486430971598307E-6
2.4868985224268387E-6
2.4005304770651305E-6
2.3995696065092056E-6
2.3992158441386967E-6
2.3136182176261815E-6
2.3118360338712155E-6
2.2258337506383437E-6
8.376520151545046E-6
8.346796379978067E-6
8.317682268594646E-6
8.484358385240896E-6
8.453956106928898E-6
8.424163488800452E-6
8.591122866795137E-6
8.560042081738116E-6
8.696813596207769E-6
8.044883207398758E-6
8.073088122105155E-6
8.101958926552539E-6
8.131495620740912E-6
7.932628949710406E-6
7.960106240004775E-6
7.988249420040128E-6
7.819266816241877E-6
7.846016482124218E-6
2.2478209446559568E-6
2.2522462636018495E-6
2.2571227330729195E-6
2.262450353069167E-6
2.329720490238981E-6
2.3333198893439117E-6
2.3373704389740193E-6
2.4107741373606454E-6
2.413547616624614E-6
2.2367089279676153E-6
2.2325491182654363E-6
2.2289240591556797E-6
2.1503802269023004E-6
2.145359697880355E-6
2.140873919450831E-6
2.0631866560546064E-6
2.0573054077128943E-6
1.9751282154245324E-6
8.79834668137021E-6
8.763811580700775E-6
8.729967218979961E-6
8.904141687234504E-6
8.868976425466894E-6
8.834501902647903E-6
9.008850884205386E-6
8.973055461339599E-6
9.11247427228285E-6
8.468263587152799E-6
8.500481055716119E-6
8.533428520005028E-6
8.567105980019526E-6
8.357129170894441E-6
8.388659419271291E-6
8.420919663373724E-6
8.24487318209048E-6
8.275716210280854E-6
2.019138550822759E-6
2.027207331739107E-6
2.0356574128966783E-6
2.0444887942954738E-6
2.1010662279283795E-6
2.108280320783769E-6
2.1158757138803817E-6
2.182170162010516E-6
2.1885295668049466E-6
1.99504719266189E-6
1.9879232985492345E-6
1.9812836394701156E-6
1.9095150231649733E-6
1.9015170387227149E-6
1.8940032893139921E-6
1.8231542694660369E-6
1.8142821946941752E-6
1.7359649315650804E-6
9.226720306177668E-6
9.187881919705888E-6
9.149799908407615E-6
9.330897808168573E-6
9.291476036823665E-6
9.252810640652261E-6
9.433989646113144E-6
9.393984489895108E-6
9.535995820011384E-6
8.898601242636729E-6
8.935406449417066E-6
8.973020418214144E-6
9.011443149027963E-6
8.789238765554593E-6
8.82540450042077E-6
8.862378997303683E-6
8.67874034468219E-6
8.714266607634205E-6
1.8008977290330621E-6
1.8126905274280833E-6
1.824786031231402E-6
1.8371842404430179E-6
1.8828853932255535E-6
1.8937961120811179E-6
1.9050095363449792E-6
1.964082414979691E-6
1.9741110542957983E-6
1.7682347043104924E-6
1.757082801888285E-6
1.7463262109731474E-6
1.6824358066424197E-6
1.6703756115632626E-6
1.6587107279911746E-6
1.595840342865581E-6
1.5828718551294734E-6
1.5084483129799756E-6
9.657975072455376E-6
9.61652565455438E-6
9.575865903739718E-6
9.762155101235551E-6
9.720145115217672E-6
9.678924796286121E-6
9.86523307806311E-6
9.822662523928346E-6
9.967209002938054E-6
9.340663862772443E-6
9.381012640423702E-6
9.422229706375619E-6
9.464315060628199E-6
9.232087694368286E-6
9.271828670110975E-6
9.31243793415432E-6
9.122347456453461E-6
9.161480630287576E-6
1.59442022603424E-6
1.6095739689290933E-6
1.6249730661787996E-6
1.6406175177833582E-6
1.6761206420929128E-6
1.6903652788688074E-6
1.7048552699995546E-6
1.7570419802291719E-6
1.770377510886108E-6
1.5541436124775558E-6
1.5386015283482013E-6
1.5233697618490078E-6
1.4677876552945832E-6
1.451287431936168E-6
1.4350975262079133E-6
1.3806316214825185E-6
1.363173258895042E-6
1.2926755110413614E-6
1.0101420012553949E-5
1.0055829332611809E-5
1.001109232940651E-5
1.0204035105726383E-5
1.0157928012833774E-5
1.0112674596678004E-5
1.0305542694449846E-5
1.0258919188606768E-5
1.0405942778724339E-5
9.787325351838628E-6
9.832462252654774E-6
9.878530267635915E-6
9.925529396782057E-6
9.680786864520245E-6
9.725380294260685E-6
9.770904838166116E-6
9.5731167674501E-6
9.617166726114832E-6
1.399335881877331E-6
1.4176604766305466E-6
1.4361701307497556E-6
1.4548648442349576E-6
1.4805121596350615E-6
1.4979089564855095E-6
1.5154908127019507E-6
1.560939371603737E-6
1.577408370551418E-6
1.3458397479036283E-6
1.3278447037964455E-6
1.310123291509023E-6
1.2608973801034417E-6
1.2419420444241587E-6
1.2232603405646357E-6
1.1751962402912261E-6
1.155280613039843E-6
1.0887363284669817E-6
1.0555376382119165E-5
1.050463765690146E-5
1.0454826455769853E-5
1.0655341314975776E-5
1.0604150665574352E-5
1.0553887540259022E-5
1.0754223980954703E-5
1.070258140736956E-5
1.0852024380055955E-5
1.024372105349048E-5
1.0293114536808357E-5
1.034350332396675E-5
1.0394887414965663E-5
1.0138787974489213E-5
1.018768723770216E-5
1.0237581804755623E-5
1.0032724088919739E-5
1.0081129132027756E-5
1.2170216899524263E-6
1.2378775372358034E-6
1.2588694577831635E-6
1.2799974515945066E-6
1.2969975661488623E-6
1.3169248805466807E-6
1.3369882682084816E-6
1.3762786175763728E-6
1.3952773990886323E-6
1.152775152111514E-6
1.1312276978215098E-6
1.1098814232733322E-6
1.068154718141838E-6
1.0456200030057255E-6
1.0232864676114394E-6
9.828019664621228E-7
9.592799904799017E-7
8.967168970723679E-7
1.1013885530934438E-5
1.0958944932843932E-5
1.0904991215884436E-5
1.1112090220494918E-5
1.1056746699721918E-5
1.100239006007993E-5
1.1209220644615318E-5
1.1153474201159827E-5
1.1305276803295638E-5
1.0710571165932055E-5
1.0763394654992184E-5
1.08172670087966E-5
1.0872188227345304E-5
1.0606492329513654E-5
1.0658856453322213E-5
1.0712269441875057E-5
1.0501264412524854E-5
1.0553169171081842E-5
1.0435245536686555E-6
1.0676276941719916E-6
1.091811658982003E-6
1.11607644809869E-6
1.1230369140383744E-6
1.146184648663596E-6
1.1694132075954929E-6
1.2018612133469914E-6
1.2240535420940987E-6
9.725204953669193E-7
9.471283540990117E-7
9.218604880008279E-7
8.879684489254734E-7
8.615515413445846E-7
8.352589089334194E-7
8.02693478009047E-7
7.75251804115177E-7
7.1669558261764E-7
1.1482035865368724E-5
1.1422051953068377E-5
1.1363132265710682E-5
1.157759355688466E-5
1.1517266999822562E-5
1.1458004667703115E-5
1.1672088874454243E-5
1.1611419672630395E-5
1.1765521818077475E-5
1.1181563020994425E-5
1.1239006606495741E-5
1.1297562291538313E-5
1.135723007612214E-5
1.1079568342969077E-5
1.1136611324668414E-5
1.1194766405909005E-5
1.0976443411752704E-5
1.1033085789650063E-5
8.825174918788059E-7
9.093738848101106E-7
9.362568082067682E-7
9.631662620687786E-7
9.610157526013845E-7
9.869087313228543E-7
1.0128282405096767E-6
1.0388687380080123E-6
1.0637983025196474E-6
7.979567975041757E-7
7.707691137724123E-7
7.43682042143567E-7
7.155459993132787E-7
6.873494711122568E-7
6.59253555014153E-7
6.324732596552714E-7
6.032678869849911E-7
5.487385785301536E-7
1.1958943037749483E-5
1.189331553476261E-5
1.182884179487194E-5
1.2051199798838278E-5
1.1985299139940928E-5
1.1920552244139777E-5
1.214241197252255E-5
1.2076238157714721E-5
1.2232579558802304E-5
1.1663763249305736E-5
1.1724620870996083E-5
1.178663519467987E-5
1.1849806220357096E-5
1.1562717579332626E-5
1.162321391293266E-5
1.1684866948526132E-5
1.1460539854938095E-5
1.1520674900447814E-5
7.317326891995556E-7
7.616357083160985E-7
7.915031486817615E-7
8.213350102965447E-7
8.094899664237948E-7
8.384130796824749E-7
8.673006141902745E-7
8.866344907135358E-7
9.145776981143527E-7
6.392275624713818E-7
6.090268551957249E-7
5.788638605486489E-7
5.577481476110176E-7
5.265252742035218E-7
4.953401134246066E-7
4.756474782756782E-7
4.434024387363435E-7
3.929255544653638E-7
1.2438526883489114E-5
1.2368658453932852E-5
1.2300009345703913E-5
1.2528816580718509E-5
1.2458724896570626E-5
1.2389852533750063E-5
1.2618063539801936E-5
1.2547748601062431E-5
1.2706267760739394E-5
1.215353202955527E-5
1.22177263479595E-5
1.2283119015843883E-5
1.2349710033208412E-5
1.205342232963968E-5
1.2117294385038035E-5
1.2182364789916535E-5
1.195218039324029E-5
1.2015730185632765E-5
5.925918300321731E-7
6.253718945103599E-7
6.58055969924694E-7
6.906440562751752E-7
6.694127201753122E-7
7.012012192292806E-7
7.328937292193963E-7
7.456604469301027E-7
7.764573805598529E-7
4.918511994400092E-7
4.589005400693528E-7
4.259253250778043E-7
4.115749521838328E-7
3.775980615792204E-7
3.435966153537158E-7
3.307346360455015E-7
2.95731514206933E-7
2.493302510250151E-7
1.2931700767924539E-5
1.285522989773443E-5
1.278008556200605E-5
1.3017611984841126E-5
1.2941003214958998E-5
1.2865720979538595E-5
1.3102510494840333E-5
1.3025763825266188E-5
1.3186396297922162E-5
1.2652751768590052E-5
1.2719529480060758E-5
1.2787521066083727E-5
1.2856726526658959E-5
1.255286043559489E-5
1.261934705199853E-5
1.2687047542954429E-5
1.2451846523801011E-5
1.2518042045137584E-5
4.6430430481153935E-7
5.000775670230763E-7
5.356923046055391E-7
5.711485175589278E-7
5.402940383537253E-7
5.750588156743887E-7
6.096650683659777E-7
6.157406221749374E-7
6.494969146047269E-7
3.566572673999075E-7
3.209639006143622E-7
2.8518822848939807E-7
2.7762956315465867E-7
2.4090293683823524E-7
2.040940051823928E-7
1.9808335806839944E-7
1.6032347222109777E-7
1.1801865214112989E-7
1.3445770785683044E-5
1.3357833062040054E-5
1.3271374899453094E-5
1.3522320866668918E-5
1.343440243124378E-5
1.3347963556874666E-5
1.3597989011825733E-5
1.3510089864618445E-5
1.3672775221153488E-5
1.3837811064286164E-5
1.378205793415544E-5
1.3727045986444547E-5
1.3947830763635114E-5
1.3891740059222184E-5
1.3836390537229081E-5
1.405696586749741E-5
1.4000537588802272E-5
1.4165216375873045E-5
1.317317107807577E-5
1.3237876040429494E-5
1.3303699563760486E-5
1.3370641648068751E-5
1.3068808349301745E-5
1.3133194629197475E-5
1.3198699470070472E-5
1.2963326832162806E-5
1.3027394429600544E-5
3.497157780934773E-7
3.876425992014189E-7
4.253696231518118E-7
4.62896849944656E-7
4.2401911522864064E-7
4.6094196361404385E-7
4.976650148418983E-7
4.978300283837908E-7
5.337489040466557E-7
2.3341854665170702E-7
1.9509040172768183E-7
1.566237702241561E-7
1.557666975557407E-7
1.1640064079090642E-7
7.689609744657152E-8
7.764369778373038E-8
3.7239729178086915E-8
-9.504526643240004E-10
1.4220515260656707E-5
1.4201829690972014E-5
1.418339672937746E-5
1.4369596328286366E-5
1.4350077868119203E-5
1.4330812016042172E-5
1.4517259164595261E-5
1.4496907813945625E-5
1.4663503769583395E-5
1.3743314317382686E-5
1.379169803151651E-5
1.3840995469421128E-5
1.3891206631096536E-5
1.3620664401282531E-5
1.3668418638883229E-5
1.3717086600254714E-5
1.3496440178177886E-5
1.3543564939245457E-5
2.440856848412724E-7
2.8496705917124774E-7
3.2558270819921777E-7
3.659326319251826E-7
3.174826940152899E-7
3.573438330872545E-7
3.969392468572137E-7
3.904197490497511E-7
4.2926065286370494E-7
1.2215803677003744E-7
8.131467408681764E-8
4.027851094203049E-8
4.601825947927193E-8
4.135175663659785E-9
-3.7940708613519716E-8
-3.054290157907515E-8
-7.346570652707965E-8
-1.075254464050038E-7
1.4733432049758137E-5
1.4709806775169096E-5
1.4686497348444182E-5
1.4879503260738788E-5
1.4855105119124315E-5
1.4831022825373963E-5
1.5024177390041255E-5
1.499900638140135E-5
1.5167454437665542E-5
1.427090773708375E-5
1.4319277591257146E-5
1.4368387874085932E-5
1.4418238585570105E-5
1.414553967359489E-5
1.419340540816348E-5
1.4242011571387456E-5
1.4018972638265818E-5
1.4066334253229603E-5
1.5161458965818988E-7
1.948225868019512E-7
2.377152809493638E-7
2.802926721004277E-7
2.2346736291141813E-7
2.656544254477312E-7
3.075261849876955E-7
2.94906710333749E-7
3.3607283826261387E-7
2.2921768517333675E-8
-2.0315407985872732E-8
-6.379781295998522E-8
-5.157006148343243E-8
-9.584601762152038E-8
-1.4036720223051443E-7
-1.264312111413904E-7
-1.7174594691435991E-7
-2.0166168045654028E-7
1.5255711841235839E-5
1.5225882990547864E-5
1.5196463856024432E-5
1.5397514212558535E-5
1.5366968220764917E-5
1.533683194513584E-5
1.5537900158986105E-5
1.550663702608685E-5
1.5676869680518556E-5
1.4823116689908159E-5
1.4865237807444598E-5
1.4908026817960874E-5
1.495148372145698E-5
1.468956008010583E-5
1.4731058038334098E-5
1.4773223889542191E-5
1.4554600711993145E-5
1.4595475510913236E-5
7.147130729931951E-8
1.1667436522575838E-7
1.6152026088845214E-7
2.0600899428740072E-7
1.4143775718158146E-7
1.8562739144493147E-7
2.294598634445363E-7
2.1104487878195086E-7
2.54221089382212E-7
-6.424994142378758E-8
-1.0975818857852372E-7
-1.5556210158944128E-7
-1.36958698364511E-7
-1.8350196205693757E-7
-2.3034089160554556E-7
-2.0998232596189945E-7
-2.5756060619201645E-7
-2.833208242159529E-7
1.57799874979022E-5
1.5745135590512324E-5
1.5710762984717778E-5
1.5918580686714207E-5
1.5883070797222082E-5
1.5848040209325278E-5
1.60557692929166E-5
1.601960142132222E-5
1.6191553316509372E-5
1.5352888200479936E-5
1.539813075846244E-5
1.5444077944058078E-5
1.5490729757266862E-5
1.5220482350367059E-5
1.5265144592106812E-5
1.5310511461459703E-5
1.5086680857359408E-5
1.5130762782856414E-5
3.727921877751779E-9
5.0581848102093504E-8
9.704205963007113E-8
1.4310855646168462E-7
7.144523618001622E-8
1.1730381440277995E-7
1.6276867792917957E-7
1.3887226031656588E-7
1.8373549053775163E-7
-1.397482900802574E-7
-1.8726650621973357E-7
-2.3512401759829872E-7
-2.1039956703466945E-7
-2.5894284428365594E-7
-3.0782541677173137E-7
-2.8130707428786234E-7
-3.308754126463592E-7
-3.524708118398361E-7
1.63102833056662E-5
1.6270150637781496E-5
1.623057397472922E-5
1.6445359852110183E-5
1.640462720887949E-5
1.6364450570481215E-5
1.6579034022474364E-5
1.653770140389767E-5
1.6711305816758733E-5
1.5901445985192162E-5
1.5945542404009613E-5
1.599030933446454E-5
1.6035746776556935E-5
1.5765960307919734E-5
1.5809467958215608E-5
1.5853646120148956E-5
1.56290548986113E-5
1.56719737803856E-5
-5.2538534560611934E-8
-4.058306330239904E-9
4.3992362778124015E-8
9.161347276447981E-8
1.2901991633604394E-8
6.040401063392999E-8
1.0747647051224745E-7
7.811768864103659E-8
1.2464149841131572E-7
-2.0185178050135552E-7
-2.5166692204411806E-7
-3.018732658236116E-7
-2.7072008241400303E-7
-3.2155984598000256E-7
-3.72790811782733E-7
-3.3979771426408426E-7
-3.9166209985332084E-7
-4.090846760515993E-7
1.684201548662522E-5
1.6797837035032685E-5
1.6754267145077187E-5
1.6974705374157274E-5
1.6929978754655472E-5
1.6885860696790706E-5
1.7106006637343207E-5
1.706073184993214E-5
1.723591927618303E-5
1.644147417398319E-5
1.6489033555008186E-5
1.653731170119273E-5
1.6586308612536832E-5
1.6307658518704987E-5
1.6354670361022334E-5
1.640240096849923E-5
1.6172416052896237E-5
1.621888035650594E-5
-9.948145617097512E-8
-4.8652912670480686E-8
1.6883032230185991E-9
5.154219150952274E-8
-3.560353598391372E-8
1.4243516889834964E-8
6.360324215658851E-8
2.8094773661237923E-8
7.696033590824086E-8
-2.5259894654940496E-7
-3.0433043574307613E-7
-3.564923455771409E-7
-3.1928684986125675E-7
-3.720341109798178E-7
-4.2521179273877237E-7
-3.861342811709749E-7
-4.3989731421442577E-7
-4.5314124047855947E-7
1.738115702352151E-5
1.733206767883528E-5
1.728365509638912E-5
1.7510540637823653E-5
1.7460962409404546E-5
1.7412060943225505E-5
1.763854829073652E-5
1.7588481178584534E-5
1.7765179982260107E-5
1.698640122960135E-5
1.7037558582013414E-5
1.7089483044673446E-5
1.714217461758143E-5
1.68544623609727E-5
1.6905117833151763E-5
1.6956540415578778E-5
1.672109815528453E-5
1.6771251747230585E-5
-1.318184619591336E-7
-7.971837881231552E-8
-2.8142661135046768E-8
2.2908691072672698E-8
-7.061076710813876E-8
-1.9461569024658023E-8
3.1163263589273437E-8
-9.490549285253318E-9
4.070776373489011E-8
-2.91907502601792E-7
-3.4519143736656606E-7
-3.989360166588218E-7
-3.560458880796573E-7
-4.1032693128366777E-7
-4.6506861901516E-7
-4.202845609969293E-7
-4.755627126401763E-7
-4.846235213536082E-7
1.792375468040946E-5
1.7870157554648178E-5
1.7817299321931728E-5
1.805016039737005E-5
1.7996129624978976E-5
1.7942837745632724E-5
1.8175200529536662E-5
1.812073611051579E-5
1.8298875076909284E-5
1.7536452617133446E-5
1.7591187169735306E-5
1.7646736678580876E-5
1.7703101143670157E-5
1.7406449371116417E-5
1.746072821790191E-5
1.751582202093111E-5
1.7275023371265745E-5
1.732884651223487E-5
-1.5519779628612798E-7
-1.0097487167571001E-7
-4.7334215300260545E-8
5.724172840220433E-9
-9.579811657548064E-8
-4.252293848923095E-8
1.0169971362050274E-8
-3.642928745588041E-8
1.5898144106201015E-8
-3.1847405736391756E-7
-3.7337209061703303E-7
-4.287552452802633E-7
-3.8009594957587567E-7
-4.3597845986145616E-7
-4.923460915571511E-7
-4.4177753999950226E-7
-4.986445273175476E-7
-5.035188286347973E-7
1.8468925327421616E-5
1.841145009505734E-5
1.8354766678219897E-5
1.8592907508816265E-5
1.853504699172538E-5
1.8477978290161315E-5
1.8715529665517344E-5
1.8657283863699844E-5
1.883679179752485E-5
1.8088885992498575E-5
1.8147993909209113E-5
1.8207980088763338E-5
1.8268844531161257E-5
1.7961709531923568E-5
1.8020416657616504E-5
1.8080002046153126E-5
1.7833114582314093E-5
1.789142091698943E-5
-1.6585813814709304E-7
-1.09930025964664E-7
-5.464397991563299E-8
0
-1.0872917014205426E-7
-5.3727248471824346E-8
6.326070650075883E-10
-5.153506647961645E-8
2.540664678414381E-9
-3.3358446431978235E-7
-3.897324532880133E-7
-4.463772413930183E-7
-3.9231469003377E-7
-4.4942541328566827E-7
-5.070329356743404E-7
-4.5105718245889043E-7
-5.09130639994456E-7
-5.098119415951438E-7
1.9018483308653423E-5
1.8957076128499326E-5
1.8896512291456465E-5
1.9139909183718587E-5
1.9078167999215362E-5
1.901727015782337E-5
1.925998750355616E-5
1.9197912314703803E-5
1.9378718268166142E-5
1.8647030840325397E-5
1.8710143224484067E-5
1.8774187017522142E-5
1.8839162219439623E-5
1.852237510065454E-5
1.8585140710534125E-5
1.8648837729293116E-5
1.8396312997599828E-5
1.8458731833200328E-5
-1.574932295017787E-7
-1.0243160035867466E-7
-4.8024610586421314E-8
5.727739814981392E-9
-1.05304913977281E-7
-5.1055572329135463E-8
2.539129948159426E-9
-5.280717081002143E-8
6.298833431656112E-10
-1.2111589204186528E-7
-7.29528358276255E-8
-2.4943215536232487E-8
2.2912968832313726E-8
-7.885054562310913E-8
-3.140078460144617E-8
1.5895540497370035E-8
-3.6569335004160254E-8
1.0167130824925914E-8
-3.410404175848881E-7
-3.9690087873322906E-7
-4.5315805340331426E-7
-3.951703938163569E-7
-4.519521367870147E-7
-5.091305932794167E-7
-4.49327883674347E-7
-5.070309084673216E-7
-5.03512887158858E-7
1.9572242465581E-5
1.9506842549431464E-5
1.944233448362651E-5
1.969096834876582E-5
1.962528918355616E-5
1.9560501868691078E-5
1.980836890631549E-5
1.97424104920457E-5
1.9924444138230002E-5
1.9208803203755344E-5
1.927615098589015E-5
1.9344487292722086E-5
1.9413812124251165E-5
1.908698152304479E-5
1.9154039846494573E-5
1.9222086694641483E-5
1.8963767861606216E-5
1.903053672637097E-5
-1.2611276023548632E-7
-6.69763458145272E-8
-7.7564232051277E-9
5.154700759271218E-8
-7.592282654676142E-8
-1.7649604512261014E-8
4.07071257106798E-8
-2.624758352416141E-8
3.11624461238803E-8
-2.926499261590499E-7
-3.622792278327481E-7
-4.3256688149935083E-7
-3.561432758076096E-7
-4.270682524822317E-7
-4.986515811497581E-7
-4.201323986880103E-7
-4.923530503635562E-7
-4.84617294800252E-7
2.0129430344959754E-5
2.006016172076431E-5
1.999183298518773E-5
2.0245513953561513E-5
2.017601873751134E-5
2.0107463410080013E-5
2.03602905208228E-5
2.029056871291788E-5
2.0473760046743602E-5
1.9776088870196285E-5
1.984721246142984E-5
1.9919367724310186E-5
1.9992554658837324E-5
1.9656698980208796E-5
1.972758794296361E-5
1.979950857736521E-5
1.9535940064893755E-5
1.9606594399169833E-5
-1.0132121611834883E-7
-3.694483381726096E-8
2.7367520379292906E-8
9.161584647131274E-8
-4.980644682928652E-8
1.3609342808026823E-8
7.696110434080616E-8
1.149627741067149E-9
6.360482471460597E-8
-2.9880502168962834E-7
-3.6051641251092975E-7
-4.2245383688113764E-7
-3.4996469871286916E-7
-4.1264987510902204E-7
-4.7556108505408117E-7
-4.0140868527017486E-7
-4.6506764724117904E-7
-4.531369813615454E-7
2.069022292840319E-5
2.0617080801989397E-5
2.0544926508102862E-5
2.080359611603425E-5
2.0730280530220394E-5
2.0657952776933795E-5
2.0915681207760992E-5
2.0842192162547066E-5
2.1026478203583402E-5
2.0345210567055514E-5
2.0420767549897593E-5
2.0497415972882066E-5
2.0575155836008945E-5
2.022900886410664E-5
2.0304392345974825E-5
2.0380867267985405E-5
2.0111456894700572E-5
2.0186666875594866E-5
-5.543129210208446E-8
1.0947209935815563E-8
7.712775272783561E-8
1.4311033627397574E-7
-5.9347303553340386E-9
5.945315448722462E-8
1.246430800839033E-7
4.308098250246503E-8
1.0747825014968233E-7
-2.5458791812409E-7
-3.2051774528863785E-7
-3.867007663677897E-7
-3.0573643566932546E-7
-3.726899326120849E-7
-4.398966234694482E-7
-3.572341789972978E-7
-4.2521134571826884E-7
-4.090811481080071E-7
2.1255777170269324E-5
2.117830939747651E-5
2.1101876408581206E-5
2.136589977714077E-5
2.1288320027966808E-5
2.1211775062690336E-5
2.147477087037426E-5
2.1397079144819135E-5
2.158239044996978E-5
2.0919448808137245E-5
2.09989589998986E-5
2.107961061964316E-5
2.1161403667370925E-5
2.0806016037271395E-5
2.0885409163947126E-5
2.0965943718606052E-5
2.069125171322863E-5
2.077052777481873E-5
2.755391106880559E-9
7.078070548638319E-8
1.385324788845555E-7
2.0601071130139745E-7
4.995487148810595E-8
1.1698272935902383E-7
1.8373704624861135E-7
9.673985321047101E-8
1.6277025457280414E-7
-2.0356626642958933E-7
-2.718416738330721E-7
-3.4034663439254463E-7
-2.528434514009309E-7
-3.2213717479292667E-7
-3.9166045134091223E-7
-3.024775657324084E-7
-3.727896051129172E-7
-3.5246860942402206E-7
2.1824833482302696E-5
2.174291889207673E-5
2.1662104547965754E-5
2.193154648766378E-5
2.1849578881746958E-5
2.1768711521945125E-5
2.2037020554100176E-5
2.1954999932492496E-5
2.2141255681611883E-5
2.14974463794234E-5
2.1580787804549203E-5
2.1665317108055635E-5
2.1751034289942697E-5
2.1386743220784044E-5
2.1470023294334116E-5
2.155449124626481E-5
2.1274728983433222E-5
2.1357947705407557E-5
7.255973846016919E-8
1.421275108190308E-7
2.113723572817314E-7
2.802942778482711E-7
1.1740193287064693E-7
1.8597361659936753E-7
2.542223744319271E-7
1.6188559048438968E-7
2.2946118558296924E-7
-1.3989018751577309E-7
-2.1047132892533948E-7
-2.8133080289475583E-7
-1.873733143314692E-7
-2.589844794468556E-7
-3.308739771220919E-7
-2.351829465824699E-7
-3.0782413540367624E-7
-2.833190842687751E-7
2.2396490190389046E-5
2.2310266944941563E-5
2.2225188775349175E-5
2.24998056225334E-5
2.2413591337846352E-5
2.23285221290144E-5
2.2601921225208736E-5
2.2515715901282127E-5
2.270283699841505E-5
2.207883738718282E-5
2.2165921833465737E-5
2.2254234285372516E-5
2.234377474290317E-5
2.197085351312648E-5
2.2057932708698266E-5
2.2146239909893913E-5
2.1861585814046438E-5
2.1948659758907097E-5
1.52286143749263E-7
2.2389523746419626E-7
2.9511128899472533E-7
3.659342983408503E-7