# vtk DataFile Version 2.0
Generated volume Mesh
ASCII
DATASET UNSTRUCTURED_GRID
POINTS 1240 float
-0.212153 -0.150304 0.000000
-0.206421 -0.141033 0.000000
-0.215099 -0.146056 0.000000
-0.209122 -0.154492 0.000000
-0.217961 -0.141751 0.000000
-0.206009 -0.158620 0.000000
-0.220736 -0.137389 0.000000
-0.202815 -0.162684 0.000000
-0.223424 -0.132973 0.000000
-0.226023 -0.128505 0.000000
-0.199540 -0.166684 0.000000
-0.228534 -0.123985 0.000000
-0.196187 -0.170619 0.000000
-0.230953 -0.119417 0.000000
-0.192756 -0.174486 0.000000
-0.233282 -0.114802 0.000000
-0.189249 -0.178283 0.000000
-0.235519 -0.110141 0.000000
-0.185666 -0.182011 0.000000
-0.237662 -0.105436 0.000000
-0.182011 -0.185666 0.000000
-0.239711 -0.100690 0.000000
-0.178283 -0.189249 0.000000
-0.241666 -0.095904 0.000000
-0.174486 -0.192756 0.000000
-0.243525 -0.091081 0.000000
-0.170619 -0.196187 0.000000
-0.245288 -0.086221 0.000000
-0.166684 -0.199540 0.000000
-0.246953 -0.081327 0.000000
-0.162684 -0.202815 0.000000
-0.248521 -0.076401 0.000000
-0.158620 -0.206009 0.000000
-0.249991 -0.071445 0.000000
-0.154492 -0.209122 0.000000
-0.251363 -0.066459 0.000000
-0.150304 -0.212153 0.000000
-0.252634 -0.061448 0.000000
-0.146056 -0.215099 0.000000
-0.253806 -0.056412 0.000000
-0.141751 -0.217961 0.000000
-0.137389 -0.220736 0.000000
-0.254878 -0.051354 0.000000
-0.132973 -0.223424 0.000000
-0.255849 -0.046275 0.000000
-0.128505 -0.226023 0.000000
-0.256718 -0.041179 0.000000
-0.123985 -0.228534 0.000000
-0.257486 -0.036067 0.000000
-0.119417 -0.230953 0.000000
-0.258152 -0.030940 0.000000
-0.114802 -0.233282 0.000000
-0.258717 -0.025802 0.000000
-0.110141 -0.235519 0.000000
-0.259178 -0.020654 0.000000
-0.105436 -0.237662 0.000000
-0.259538 -0.015498 0.000000
-0.100690 -0.239711 0.000000
-0.259794 -0.010336 0.000000
-0.095904 -0.241666 0.000000
-0.259949 -0.005169 0.000000
-0.091081 -0.243525 0.000000
-0.260000 0.000000 0.000000
-0.259949 0.005169 0.000000
-0.086221 -0.245288 0.000000
-0.259794 0.010336 0.000000
-0.081327 -0.246953 0.000000
-0.259538 0.015498 0.000000
-0.076401 -0.248521 0.000000
-0.259178 0.020654 0.000000
-0.071445 -0.249991 0.000000
-0.258717 0.025802 0.000000
-0.066459 -0.251363 0.000000
-0.258152 0.030940 0.000000
-0.061448 -0.252634 0.000000
-0.257486 0.036067 0.000000
-0.056412 -0.253806 0.000000
-0.256718 0.041179 0.000000
-0.051354 -0.254878 0.000000
-0.255849 0.046275 0.000000
-0.046275 -0.255849 0.000000
-0.254878 0.051354 0.000000
-0.041179 -0.256718 0.000000
-0.253806 0.056412 0.000000
-0.036067 -0.257486 0.000000
-0.252634 0.061448 0.000000
-0.030940 -0.258152 0.000000
-0.251363 0.066459 0.000000
-0.025802 -0.258717 0.000000
-0.249991 0.071445 0.000000
-0.020654 -0.259178 0.000000
-0.248521 0.076401 0.000000
-0.015498 -0.259538 0.000000
-0.010336 -0.259794 0.000000
-0.246953 0.081327 0.000000
-0.005169 -0.259949 0.000000
-0.245288 0.086221 0.000000
0.000000 -0.260000 0.000000
-0.243525 0.091081 0.000000
0.005169 -0.259949 0.000000
-0.241666 0.095904 0.000000
0.010336 -0.259794 0.000000
-0.239711 0.100690 0.000000
0.015498 -0.259538 0.000000
-0.237662 0.105436 0.000000
0.020654 -0.259178 0.000000
-0.235519 0.110141 0.000000
0.025802 -0.258717 0.000000
-0.233282 0.114802 0.000000
0.030940 -0.258152 0.000000
-0.230953 0.119417 0.000000
0.036067 -0.257486 0.000000
-0.228534 0.123985 0.000000
0.041179 -0.256718 0.000000
-0.226023 0.128505 0.000000
-0.223424 0.132973 0.000000
0.046275 -0.255849 0.000000
-0.220736 0.137389 0.000000
0.051354 -0.254878 0.000000
-0.217961 0.141751 0.000000
0.056412 -0.253806 0.000000
-0.215099 0.146056 0.000000
0.061448 -0.252634 0.000000
-0.212153 0.150304 0.000000
0.066459 -0.251363 0.000000
-0.209122 0.154492 0.000000
0.071445 -0.249991 0.000000
-0.206009 0.158620 0.000000
0.076401 -0.248521 0.000000
-0.202815 0.162684 0.000000
0.081327 -0.246953 0.000000
-0.199540 0.166684 0.000000
0.086221 -0.245288 0.000000
-0.196187 0.170619 0.000000
0.091081 -0.243525 0.000000
-0.192756 0.174486 0.000000
0.095904 -0.241666 0.000000
-0.189249 0.178283 0.000000
0.100690 -0.239711 0.000000
-0.185666 0.182011 0.000000
0.105436 -0.237662 0.000000
-0.182011 0.185666 0.000000
0.110141 -0.235519 0.000000
-0.178283 0.189249 0.000000
0.114802 -0.233282 0.000000
-0.174486 0.192756 0.000000
0.119417 -0.230953 0.000000
0.123985 -0.228534 0.000000
-0.170619 0.196187 0.000000
0.128505 -0.226023 0.000000
-0.166684 0.199540 0.000000
0.132973 -0.223424 0.000000
-0.162684 0.202815 0.000000
0.137389 -0.220736 0.000000
-0.158620 0.206009 0.000000
0.141751 -0.217961 0.000000
-0.154492 0.209122 0.000000
0.146056 -0.215099 0.000000
-0.150304 0.212153 0.000000
0.150304 -0.212153 0.000000
-0.146056 0.215099 0.000000
0.154492 -0.209122 0.000000
-0.141751 0.217961 0.000000
0.158620 -0.206009 0.000000
-0.137389 0.220736 0.000000
0.162684 -0.202815 0.000000
-0.132973 0.223424 0.000000
-0.128505 0.226023 0.000000
0.166684 -0.199540 0.000000
-0.123985 0.228534 0.000000
0.170619 -0.196187 0.000000
-0.119417 0.230953 0.000000
0.174486 -0.192756 0.000000
-0.114802 0.233282 0.000000
0.178283 -0.189249 0.000000
-0.110141 0.235519 0.000000
0.182011 -0.185666 0.000000
-0.105436 0.237662 0.000000
0.185666 -0.182011 0.000000
-0.100690 0.239711 0.000000
0.189249 -0.178283 0.000000
-0.095904 0.241666 0.000000
0.192756 -0.174486 0.000000
-0.091081 0.243525 0.000000
0.196187 -0.170619 0.000000
-0.086221 0.245288 0.000000
0.199540 -0.166684 0.000000
-0.081327 0.246953 0.000000
0.202815 -0.162684 0.000000
-0.076401 0.248521 0.000000
0.206009 -0.158620 0.000000
-0.071445 0.249991 0.000000
0.209122 -0.154492 0.000000
-0.066459 0.251363 0.000000
0.212153 -0.150304 0.000000
-0.061448 0.252634 0.000000
0.215099 -0.146056 0.000000
-0.056412 0.253806 0.000000
0.217961 -0.141751 0.000000
0.220736 -0.137389 0.000000
-0.051354 0.254878 0.000000
0.223424 -0.132973 0.000000
-0.046275 0.255849 0.000000
0.226023 -0.128505 0.000000
-0.041179 0.256718 0.000000
0.228534 -0.123985 0.000000
-0.036067 0.257486 0.000000
0.230953 -0.119417 0.000000
-0.030940 0.258152 0.000000
0.233282 -0.114802 0.000000
-0.025802 0.258717 0.000000
0.235519 -0.110141 0.000000
-0.020654 0.259178 0.000000
0.237662 -0.105436 0.000000
-0.015498 0.259538 0.000000
0.239711 -0.100690 0.000000
-0.010336 0.259794 0.000000
0.241666 -0.095904 0.000000
-0.005169 0.259949 0.000000
0.243525 -0.091081 0.000000
0.000000 0.260000 0.000000
0.245288 -0.086221 0.000000
0.005169 0.259949 0.000000
0.246953 -0.081327 0.000000
0.010336 0.259794 0.000000
0.248521 -0.076401 0.000000
0.015498 0.259538 0.000000
0.249991 -0.071445 0.000000
0.020654 0.259178 0.000000
0.251363 -0.066459 0.000000
0.025802 0.258717 0.000000
0.252634 -0.061448 0.000000
0.030940 0.258152 0.000000
0.253806 -0.056412 0.000000
0.036067 0.257486 0.000000
0.254878 -0.051354 0.000000
0.041179 0.256718 0.000000
0.255849 -0.046275 0.000000
0.046275 0.255849 0.000000
0.256718 -0.041179 0.000000
0.051354 0.254878 0.000000
0.257486 -0.036067 0.000000
0.056412 0.253806 0.000000
0.258152 -0.030940 0.000000
0.061448 0.252634 0.000000
0.258717 -0.025802 0.000000
0.066459 0.251363 0.000000
0.259178 -0.020654 0.000000
0.071445 0.249991 0.000000
0.259538 -0.015498 0.000000
0.076401 0.248521 0.000000
0.259794 -0.010336 0.000000
0.081327 0.246953 0.000000
0.259949 -0.005169 0.000000
0.086221 0.245288 0.000000
0.260000 0.000000 0.000000
0.091081 0.243525 0.000000
0.259949 0.005169 0.000000
0.095904 0.241666 0.000000
0.259794 0.010336 0.000000
0.100690 0.239711 0.000000
0.259538 0.015498 0.000000
0.105436 0.237662 0.000000
0.259178 0.020654 0.000000
0.110141 0.235519 0.000000
0.258717 0.025802 0.000000
0.114802 0.233282 0.000000
0.258152 0.030940 0.000000
0.119417 0.230953 0.000000
0.257486 0.036067 0.000000
0.123985 0.228534 0.000000
0.256718 0.041179 0.000000
0.128505 0.226023 0.000000
0.255849 0.046275 0.000000
0.132973 0.223424 0.000000
0.254878 0.051354 0.000000
0.137389 0.220736 0.000000
0.253806 0.056412 0.000000
0.141751 0.217961 0.000000
0.252634 0.061448 0.000000
0.146056 0.215099 0.000000
0.251363 0.066459 0.000000
0.150304 0.212153 0.000000
0.249991 0.071445 0.000000
0.154492 0.209122 0.000000
0.248521 0.076401 0.000000
0.158620 0.206009 0.000000
0.246953 0.081327 0.000000
0.162684 0.202815 0.000000
0.245288 0.086221 0.000000
0.166684 0.199540 0.000000
0.243525 0.091081 0.000000
0.170619 0.196187 0.000000
0.241666 0.095904 0.000000
0.174486 0.192756 0.000000
0.239711 0.100690 0.000000
0.178283 0.189249 0.000000
0.237662 0.105436 0.000000
0.182011 0.185666 0.000000
0.235519 0.110141 0.000000
0.185666 0.182011 0.000000
0.233282 0.114802 0.000000
0.189249 0.178283 0.000000
0.230953 0.119417 0.000000
0.192756 0.174486 0.000000
0.228534 0.123985 0.000000
0.196187 0.170619 0.000000
0.226023 0.128505 0.000000
0.199540 0.166684 0.000000
0.223424 0.132973 0.000000
0.202815 0.162684 0.000000
0.220736 0.137389 0.000000
0.206009 0.158620 0.000000
0.217961 0.141751 0.000000
0.209122 0.154492 0.000000
0.215099 0.146056 0.000000
0.212153 0.150304 0.000000
-0.203462 -0.145269 0.000000
-0.209292 -0.136737 0.000000
-0.200416 -0.149443 0.000000
-0.212073 -0.132382 0.000000
-0.197285 -0.153553 0.000000
-0.214764 -0.127971 0.000000
-0.194070 -0.157598 0.000000
-0.217362 -0.123505 0.000000
-0.190771 -0.161575 0.000000
-0.219868 -0.118987 0.000000
-0.187391 -0.165483 0.000000
-0.222281 -0.114417 0.000000
-0.183931 -0.169320 0.000000
-0.224598 -0.109799 0.000000
-0.180392 -0.173086 0.000000
-0.226819 -0.105134 0.000000
-0.176777 -0.176777 0.000000
-0.228943 -0.100424 0.000000
-0.173086 -0.180392 0.000000
-0.230970 -0.095671 0.000000
-0.169320 -0.183931 0.000000
-0.232898 -0.090877 0.000000
-0.165483 -0.187391 0.000000
-0.234726 -0.086044 0.000000
-0.161575 -0.190771 0.000000
-0.236454 -0.081175 0.000000
-0.157598 -0.194070 0.000000
-0.238081 -0.076271 0.000000
-0.153553 -0.197285 0.000000
-0.239607 -0.071334 0.000000
-0.149443 -0.200416 0.000000
-0.241030 -0.066366 0.000000
-0.145269 -0.203462 0.000000
-0.242350 -0.061370 0.000000
-0.141033 -0.206421 0.000000
[...]
POINT_DATA 1240
SCALARS u1 float
LOOKUP_TABLE default
-0.0001
-0.0001
-0.0001
-0.0001
-0.0001
-0.0001
-0.0001
-0.0001
-9e-05
-9e-05
-0.0002
-9e-05
-0.0002
-0.0001
-0.0002
-0.0001
-0.0002
-0.0001
-0.0002
-0.0001
-0.0002
-0.0001
-0.0001
-0.0001
-0.0001
-0.0001
-0.0001
-0.0001
-0.0001
-0.0002
-0.0001
-0.0002
-9e-05
-0.0002
-8e-05
-0.0002
-7e-05
-0.0002
-6e-05
-0.0003
-6e-05
-5e-05
-0.0003
-5e-05
-0.0003
-4e-05
-0.0003
-4e-05
-0.0004
-4e-05
-0.0004
-4e-05
-0.0004
-4e-05
-0.0004
-4e-05
-0.0004
-4e-05
-0.0004
-4e-05
-0.0004
-4e-05
-0.0004
-0.0004
-5e-05
-0.0004
-5e-05
-0.0004
-5e-05
-0.0004
-6e-05
-0.0004
-6e-05
-0.0004
-7e-05
-0.0004
-7e-05
-0.0003
-7e-05
-0.0003
-7e-05
-0.0003
-7e-05
-0.0003
-7e-05
-0.0002
-6e-05
-0.0002
-6e-05
-0.0002
-6e-05
-0.0002
-5e-05
-4e-05
-0.0002
-4e-05
-0.0002
-3e-05
-0.0001
-3e-05
-0.0001
-2e-05
-0.0001
-1e-05
-0.0001
-1e-05
-0.0001
-5e-06
-0.0001
-1e-06
-0.0001
2e-06
-0.0001
4e-06
-0.0001
-0.0001
5e-06
-0.0001
4e-06
-0.0001
2e-06
-0.0001
-6e-07
-0.0001
-4e-06
-0.0001
-8e-06
-0.0002
-1e-05
-0.0002
-2e-05
-0.0002
-2e-05
-0.0002
-2e-05
-0.0002
-2e-05
-0.0002
-3e-05
-0.0002
-3e-05
-0.0002
-3e-05
-0.0002
-3e-05
-0.0002
-3e-05
-3e-05
-0.0002
-2e-05
-0.0001
-2e-05
-0.0001
-2e-05
-0.0001
-2e-05
-0.0001
-1e-05
-0.0001
-2e-06
-9e-05
7e-06
-9e-05
2e-05
-8e-05
3e-05
-8e-05
-8e-05
4e-05
-8e-05
5e-05
-8e-05
6e-05
-8e-05
7e-05
-8e-05
8e-05
-8e-05
8e-05
-8e-05
8e-05
-8e-05
8e-05
-8e-05
8e-05
-8e-05
7e-05
-9e-05
7e-05
-9e-05
6e-05
-9e-05
5e-05
-0.0001
4e-05
-0.0001
3e-05
-0.0001
2e-05
1e-05
-0.0001
1e-05
-0.0001
8e-06
-0.0001
9e-06
-0.0001
1e-05
-0.0001
1e-05
-0.0001
2e-05
-9e-05
2e-05
-9e-05
3e-05
-8e-05
4e-05
-8e-05
5e-05
-7e-05
6e-05
-6e-05
7e-05
-6e-05
8e-05
-5e-05
0.0001
-5e-05
0.0001
-4e-05
0.0001
-4e-05
0.0002
-3e-05
0.0002
-3e-05
0.0002
-3e-05
0.0002
-3e-05
0.0003
-3e-05
0.0003
-4e-05
0.0003
-4e-05
0.0003
-4e-05
0.0003
-5e-05
0.0003
-5e-05
0.0003
-5e-05
0.0003
-6e-05
0.0003
-6e-05
0.0003
-6e-05
0.0003
-6e-05
0.0003
-6e-05
0.0003
-6e-05
0.0003
-6e-05
0.0002
-6e-05
0.0002
-6e-05
0.0002
-5e-05
0.0002
-5e-05
0.0002
-5e-05
0.0001
-4e-05
0.0001
-3e-05
9e-05
-2e-05
7e-05
-1e-05
6e-05
9e-07
4e-05
1e-05
3e-05
3e-05
2e-05
4e-05
2e-05
4e-05
9e-06
5e-05
3e-06
6e-05
-2e-06
6e-05
-6e-06
6e-05
-9e-06
6e-05
-1e-05
5e-05
-9e-06
4e-05
-6e-06
3e-05
-4e-07
2e-05
7e-06
2e-05
-0.0001
-0.0001
-0.0001
-9e-05
-0.0001
-9e-05
-0.0001
-9e-05
-0.0001
-0.0001
-0.0001
-0.0001
-0.0002
-0.0001
-0.0002
-0.0001
-0.0002
-0.0001
-0.0002
-0.0001
-0.0002
-0.0001
-0.0001
-0.0001
-0.0001
-0.0002
-0.0001
-0.0002
-0.0001
-0.0002
-0.0001
-0.0002
-9e-05
-0.0002
-8e-05
-0.0003
-7e-05
-0.0003
-6e-05
-0.0003
-5e-05
-0.0003
-5e-05
-0.0004
-4e-05
-0.0004
-4e-05
-0.0004
-4e-05
-0.0004
-4e-05
-0.0004
-3e-05
-0.0004
-3e-05
-0.0004
-3e-05
-0.0004
-3e-05
-0.0004
-3e-05
-0.0004
-2e-05
-0.0004
-2e-05
-0.0004
-2e-05
-0.0004
-2e-05
-0.0004
-3e-05
-0.0004
-3e-05
-0.0003
-3e-05
-0.0003
-3e-05
-0.0003
-3e-05
-0.0003
-3e-05
-0.0002
-3e-05
-0.0002
-3e-05
-0.0002
-3e-05
-0.0002
-3e-05
-0.0002
-3e-05
-0.0002
-3e-05
-0.0002
-3e-05
-0.0001
-3e-05
-0.0001
-3e-05
-0.0001
-3e-05
-0.0001
-3e-05
-0.0001
-3e-05
-0.0001
-4e-05
-0.0001
-4e-05
-0.0001
-4e-05
-0.0001
-4e-05
-0.0001
-4e-05
-0.0001
-4e-05
-0.0001
-4e-05
-0.0001
-4e-05
-0.0001
-4e-05
-0.0002
-4e-05
-0.0002
-4e-05
-0.0002
-4e-05
-0.0002
-4e-05
-0.0002
-4e-05
-0.0002
-3e-05
-0.0002
-3e-05
-0.0002
-3e-05
-0.0002
-3e-05
-0.0002
-2e-05
-0.0002
-2e-05
-0.0001
-9e-06
-0.0001
-5e-07
-0.0001
9e-06
-0.0001
2e-05
-0.0001
3e-05
-9e-05
4e-05
-9e-05
5e-05
-8e-05
6e-05
-7e-05
7e-05
-7e-05
8e-05
-7e-05
8e-05
-7e-05
8e-05
-7e-05
8e-05
-6e-05
8e-05
-6e-05
7e-05
-6e-05
6e-05
-6e-05
5e-05
-6e-05
4e-05
-6e-05
3e-05
-6e-05
3e-05
-6e-05
2e-05
-6e-05
1e-05
-6e-05
1e-05
-6e-05
8e-06
-7e-05
9e-06
-7e-05
1e-05
-7e-05
2e-05
-7e-05
2e-05
-7e-05
3e-05
-7e-05
3e-05
-7e-05
4e-05
-7e-05
5e-05
-7e-05
6e-05
-7e-05
7e-05
-7e-05
9e-05
-7e-05
0.0001
-7e-05
0.0001
-7e-05
0.0001
-7e-05
0.0002
-7e-05
0.0002
-7e-05
0.0002
-7e-05
0.0002
-7e-05
0.0003
-8e-05
0.0003
-8e-05
0.0003
-8e-05
0.0003
-8e-05
0.0003
-8e-05
0.0003
-8e-05
0.0003
-7e-05
0.0003
-7e-05
0.0003
-7e-05
0.0003
-7e-05
0.0003
-7e-05
0.0003
-6e-05
0.0003
-6e-05
0.0003
-6e-05
0.0003
-5e-05
0.0002
-5e-05
0.0002
-4e-05
0.0002
-3e-05
0.0002
-2e-05
0.0001
-9e-06
0.0001
3e-06
9e-05
2e-05
8e-05
3e-05
6e-05
4e-05
5e-05
5e-05
4e-05
5e-05
3e-05
6e-05
2e-05
6e-05
1e-05
6e-05
5e-06
5e-05
-3e-07
5e-05
-5e-06
4e-05
-8e-06
3e-05
-1e-05
2e-05
-9e-06
1e-05
-6e-06
-1e-06
6e-06
-0.0001
-0.0001
-0.0001
-0.0001
-0.0001
-0.0001
-0.0001
-0.0001
-0.0001
-0.0001
-0.0001
-9e-05
-9e-05
-0.0001
-0.0001
-9e-05
-9e-05
-9e-05
-0.0001
-0.0002
-9e-05
-9e-05
-0.0002
-0.0002
-0.0001
-0.0001
-0.0002
-0.0002
-0.0001
-0.0001
-0.0002
-0.0002
-0.0001
-0.0001
-0.0002
-0.0002
-0.0001
-0.0001
-0.0002
-0.0002
-0.0001
-0.0001
-0.0002
-0.0001
-0.0001
-0.0001
-0.0001
-0.0001
-0.0001
-0.0001
-0.0001
-0.0001
-0.0002
-0.0002
-0.0001
-0.0001
-0.0002
-0.0002
-0.0001
-0.0001
-0.0002
-0.0002
-0.0001
-9e-05
-0.0002
-0.0002
-9e-05
-8e-05
-0.0002
-0.0002
-8e-05
-7e-05
-0.0002
-0.0003
-7e-05
-6e-05
-0.0003
-0.0003
-6e-05
-6e-05
-5e-05
-0.0003
-0.0003
-5e-05
-5e-05
-0.0003
-0.0003
-5e-05
-4e-05
-0.0003
-0.0003
-4e-05
-4e-05
-0.0004
-0.0004
-4e-05
-4e-05
-0.0004
-0.0004
-4e-05
-4e-05
-0.0004
-0.0004
-4e-05
-4e-05
-0.0004
-0.0004
-4e-05
-4e-05
-0.0004
-0.0004
-4e-05
-4e-05
-0.0004
-0.0004
-3e-05
-4e-05
-0.0004
-0.0004
-3e-05
-4e-05
-0.0004
-0.0004
-0.0004
-3e-05
-4e-05
-0.0004
-0.0004
-3e-05
-4e-05
-0.0004
-0.0004
-3e-05
-5e-05
-0.0004
-0.0004
-4e-05
-5e-05
-0.0004
-0.0004
-4e-05
-5e-05
-0.0004
-0.0004
-4e-05
-5e-05
-0.0004
-0.0004
-4e-05
-5e-05
-0.0003
-0.0003
-4e-05
-6e-05
-0.0003
-0.0003
-4e-05
-6e-05
-0.0003
-0.0003
-4e-05
-6e-05
-0.0003
-0.0003
-4e-05
-5e-05
-0.0003
-0.0002
-4e-05
-5e-05
-0.0002
-0.0002
-4e-05
-5e-05
-0.0002
-0.0002
-4e-05
-5e-05
-0.0002
-0.0002
-4e-05
-4e-05
-4e-05
-0.0002
-0.0002
-4e-05
-4e-05
-0.0002
-0.0002
-3e-05
-3e-05
-0.0002
-0.0001
-3e-05
-3e-05
-0.0001
-0.0001
-3e-05
-2e-05
-0.0001
-0.0001
-3e-05
-2e-05
-0.0001
-0.0001
-3e-05
-2e-05
-0.0001
-0.0001
-2e-05
-1e-05
-0.0001
-0.0001
-2e-05
-1e-05
-0.0001
-0.0001
-2e-05
-1e-05
-0.0001
-0.0001
-2e-05
-9e-06
-0.0001
-0.0001
-0.0001
-2e-05
-1e-05
-0.0001
-0.0001
-2e-05
-1e-05
-0.0001
-0.0001
-3e-05
-1e-05
-0.0001
-0.0001
-3e-05
-2e-05
-0.0001
-0.0001
-3e-05
-2e-05
-0.0001
-0.0001
-3e-05
-2e-05
-0.0001
-0.0002
-3e-05
-2e-05
-0.0002
-0.0002
-3e-05
-3e-05
-0.0002
-0.0002
-3e-05
-3e-05
-0.0002
-0.0002
-3e-05
-3e-05
-0.0002
-0.0002
-3e-05
-3e-05
-0.0002
-0.0002
-3e-05
-3e-05
-0.0002
-0.0002
-3e-05
-3e-05
-0.0002
-0.0002
-3e-05
-3e-05
-0.0002
-0.0002
-3e-05
-3e-05
-0.0002
-0.0002
-3e-05
-3e-05
-3e-05
-0.0002
-0.0002
-3e-05
-2e-05
-0.0002
-0.0001
-2e-05
-2e-05
-0.0001
-0.0001
-2e-05
-2e-05
-0.0001
-0.0001
-9e-06
-9e-06
-0.0001
-0.0001
-4e-07
-9e-07
-0.0001
-0.0001
9e-06
9e-06
-0.0001
-9e-05
2e-05
2e-05
-9e-05
-9e-05
3e-05
3e-05
-9e-05
-8e-05
4e-05
4e-05
-8e-05
-8e-05
-8e-05
5e-05
5e-05
-8e-05
-7e-05
6e-05
6e-05
-7e-05
-7e-05
7e-05
7e-05
-7e-05
-7e-05
8e-05
8e-05
-7e-05
-7e-05
8e-05
8e-05
-7e-05
-7e-05
8e-05
8e-05
-7e-05
-7e-05
8e-05
8e-05
-7e-05
-7e-05
8e-05
8e-05
-7e-05
-7e-05
7e-05
7e-05
-7e-05
-8e-05
6e-05
7e-05
-7e-05
-8e-05
6e-05
6e-05
-7e-05
-8e-05
5e-05
5e-05
-7e-05
-8e-05
4e-05
4e-05
-7e-05
-9e-05
3e-05
3e-05
-7e-05
-9e-05
2e-05
2e-05
-8e-05
-9e-05
1e-05
1e-05
1e-05
-8e-05
-9e-05
9e-06
9e-06
-8e-05
-9e-05
8e-06
8e-06
-8e-05
-9e-05
9e-06
1e-05
-8e-05
-9e-05
1e-05
1e-05
-8e-05
-9e-05
2e-05
2e-05
-8e-05
-9e-05
2e-05
2e-05
-8e-05
-8e-05
3e-05
3e-05
-7e-05
-8e-05
3e-05
4e-05
-7e-05
-7e-05
4e-05
4e-05
-7e-05
-7e-05
5e-05
5e-05
-7e-05
-7e-05
-6e-05
6e-05
7e-05
-6e-05
-6e-05
8e-05
8e-05
-6e-05
-6e-05
9e-05
0.0001
-6e-05
-5e-05
0.0001
0.0001
-6e-05
-5e-05
0.0001
0.0001
-6e-05
-5e-05
0.0002
0.0002
-6e-05
-5e-05
0.0002
0.0002
-6e-05
-5e-05
0.0002
0.0002
-6e-05
-5e-05
0.0002
0.0002
-6e-05
-5e-05
0.0002
0.0002
-6e-05
-5e-05
0.0003
0.0003
-6e-05
-5e-05
0.0003
0.0003
-7e-05
-5e-05
0.0003
0.0003
-7e-05
-6e-05
0.0003
0.0003
-7e-05
-6e-05
0.0003
0.0003
0.0003
-7e-05
-6e-05
0.0003
0.0003
-7e-05
-6e-05
0.0003
0.0003
-7e-05
-6e-05
0.0003
0.0003
-7e-05
-6e-05
0.0003
0.0003
-7e-05
-6e-05
0.0003
0.0003
-7e-05
-6e-05
0.0003
0.0003
-6e-05
-6e-05
0.0003
0.0003
-6e-05
-6e-05
0.0003
0.0003
-6e-05
-6e-05
0.0003
0.0002
-6e-05
-6e-05
0.0002
0.0002
-5e-05
-5e-05
0.0002
0.0002
-5e-05
-5e-05
0.0002
0.0002
-4e-05
-5e-05
0.0002
0.0002
-3e-05
-4e-05
0.0001
0.0001
-2e-05
-3e-05
0.0001
0.0001
-9e-06
-2e-05
0.0001
9e-05
2e-06
-1e-05
8e-05
7e-05
1e-05
2e-06
6e-05
5e-05
3e-05
1e-05
5e-05
4e-05
4e-05
3e-05
4e-05
3e-05
4e-05
4e-05
3e-05
2e-05
5e-05
4e-05
2e-05
1e-05
6e-05
5e-05
1e-05
8e-06
6e-05
6e-05
6e-06
2e-06
6e-05
6e-05
7e-07
-3e-06
5e-05
6e-05
-5e-06
-7e-06
5e-05
5e-05
-8e-06
-9e-06
4e-05
5e-05
-1e-05
-1e-05
3e-05
4e-05
-9e-06
-9e-06
2e-05
3e-05
-6e-06
-6e-06
1e-05
-9e-07
6e-06
2e-05
-7e-07
1e-05
6e-06
SCALARS u2 float
LOOKUP_TABLE default
-3e-05
-4e-05
-2e-05
-4e-05
-1e-05
-5e-05
-9e-06
-6e-05
-6e-06
-4e-06
-7e-05
-4e-06
-8e-05
-3e-06
-9e-05
-3e-06
-0.0001
-3e-06
-0.0001
-3e-06
-0.0001
-4e-06
-0.0001
-5e-06
-0.0001
-7e-06
-0.0001
-1e-05
-0.0001
-1e-05
-0.0001
-2e-05
-9e-05
-2e-05
-8e-05
-3e-05
-7e-05
-3e-05
-6e-05
-3e-05
-5e-05
-4e-05
-3e-05
-4e-05
-3e-05
-4e-05
-3e-05
-4e-05
-3e-05
-4e-05
-3e-05
-4e-05
-2e-05
-5e-05
-2e-05
-5e-05
-1e-05
-6e-05
-9e-06
-7e-05
-3e-06
-8e-05
3e-06
9e-06
-9e-05
2e-05
-0.0001
2e-05
-0.0001
3e-05
-0.0001
3e-05
-0.0002
3e-05
-0.0002
4e-05
-0.0002
4e-05
-0.0002
4e-05
-0.0002
4e-05
-0.0003
4e-05
-0.0003
4e-05
-0.0003
3e-05
-0.0003
3e-05
-0.0003
2e-05
-0.0003
-0.0003
2e-05
-0.0004
2e-05
-0.0004
2e-05
-0.0004
1e-05
-0.0003
1e-05
-0.0003
1e-05
-0.0003
1e-05
-0.0003
1e-05
-0.0003
1e-05
-0.0003
1e-05
-0.0003
2e-05
2e-05
-0.0002
2e-05
-0.0002
3e-05
-0.0002
3e-05
-0.0002
4e-05
-0.0001
5e-05
-0.0001
6e-05
-0.0001
7e-05
-9e-05
9e-05
-7e-05
0.0001
-6e-05
0.0001
-5e-05
0.0001
-5e-05
0.0001
-4e-05
0.0001
-3e-05
0.0001
-3e-05
0.0001
-2e-05
-2e-05
0.0001
-2e-05
0.0001
-2e-05
0.0001
-2e-05
0.0001
-3e-05
0.0001
-4e-05
9e-05
-5e-05
8e-05
-5e-05
7e-05
-6e-05
7e-05
-7e-05
6e-05
6e-05
-8e-05
6e-05
-9e-05
7e-05
-9e-05
7e-05
-9e-05
8e-05
-9e-05
8e-05
-8e-05
9e-05
-7e-05
0.0001
-7e-05
0.0001
-5e-05
0.0001
-4e-05
0.0001
-3e-05
0.0001
-2e-05
0.0002
-7e-06
0.0002
2e-06
0.0002
1e-05
0.0002
2e-05
2e-05
0.0003
3e-05
0.0003
3e-05
0.0003
3e-05
0.0003
3e-05
0.0003
3e-05
0.0004
3e-05
0.0004
3e-05
0.0004
3e-05
0.0004
3e-05
0.0004
3e-05
0.0004
2e-05
0.0004
2e-05
0.0004
2e-05
0.0004
1e-05
0.0004
1e-05
0.0004
7e-06
0.0003
4e-06
0.0003
2e-06
0.0003
2e-06
0.0003
3e-06
0.0003
5e-06
0.0002
8e-06
0.0002
1e-05
0.0002
2e-05
0.0002
2e-05
0.0002
3e-05
0.0001
3e-05
0.0001
4e-05
0.0001
5e-05
0.0001
5e-05
0.0001
6e-05
0.0001
6e-05
9e-05
7e-05
9e-05
7e-05
8e-05
7e-05
8e-05
8e-05
8e-05
8e-05
8e-05
8e-05
9e-05
7e-05
9e-05
7e-05
0.0001
7e-05
0.0001
6e-05
0.0001
6e-05
0.0001
6e-05
0.0001
5e-05
0.0001
5e-05
0.0002
5e-05
0.0002
5e-05
0.0002
5e-05
0.0002
5e-05
0.0002
5e-05
0.0001
5e-05
0.0001
5e-05
0.0001
5e-05
0.0001
5e-05
0.0001
5e-05
9e-05
6e-05
8e-05
6e-05
7e-05
-5e-05
-3e-05
-6e-05
-2e-05
-7e-05
-1e-05
-8e-05
-7e-06
-9e-05
-3e-06
-0.0001
4e-07
-0.0001
3e-06
-0.0001
5e-06
-0.0001
7e-06
-0.0001
8e-06
-0.0001
1e-05
-0.0001
1e-05
-9e-05
1e-05
-8e-05
1e-05
-7e-05
1e-05
-6e-05
1e-05
-6e-05
1e-05
-5e-05
1e-05
-4e-05
1e-05
-4e-05
9e-06
-4e-05
7e-06
-4e-05
6e-06
-4e-05
4e-06
-5e-05
3e-06
-5e-05
3e-06
-6e-05
3e-06
-6e-05
3e-06
-7e-05
3e-06
-8e-05
4e-06
-9e-05
4e-06
-0.0001
4e-06
-0.0001
4e-06
-0.0001
5e-06
-0.0002
4e-06
-0.0002
3e-06
-0.0002
2e-06
-0.0002
6e-07
-0.0002
-9e-07
-0.0003
-2e-06
-0.0003
-4e-06
-0.0003
-5e-06
-0.0003
-5e-06
-0.0003
-5e-06
-0.0003
-5e-06
-0.0004
-4e-06
-0.0004
-2e-06
-0.0004
-4e-07
-0.0004
1e-06
-0.0004
3e-06
-0.0003
6e-06
-0.0003
8e-06
-0.0003
1e-05
-0.0003
1e-05
-0.0003
2e-05
-0.0003
3e-05
-0.0002
3e-05
-0.0002
4e-05
-0.0002
5e-05
-0.0002
6e-05
-0.0001
8e-05
-0.0001
9e-05
-0.0001
0.0001
-9e-05
0.0001
-8e-05
0.0001
-7e-05
0.0001
-6e-05
0.0001
-5e-05
0.0001
-4e-05
0.0001
-4e-05
0.0001
-3e-05
0.0001
-2e-05
0.0001
-2e-05
0.0001
-2e-05
9e-05
-2e-05
9e-05
-2e-05
8e-05
-3e-05
7e-05
-4e-05
7e-05
-4e-05
6e-05
-5e-05
6e-05
-6e-05
6e-05
-7e-05
7e-05
-8e-05
7e-05
-8e-05
8e-05
-9e-05
8e-05
-9e-05
9e-05
-9e-05
0.0001
-8e-05
0.0001
-7e-05
0.0001
-7e-05
0.0001
-6e-05
0.0001
-5e-05
0.0002
-3e-05
0.0002
-2e-05
0.0002
-1e-05
0.0002
4e-07
0.0003
1e-05
0.0003
2e-05
0.0003
2e-05
0.0003
3e-05
0.0003
3e-05
0.0004
3e-05
0.0004
4e-05
0.0004
4e-05
0.0004
4e-05
0.0004
4e-05
0.0004
4e-05
0.0004
5e-05
0.0004
5e-05
0.0004
5e-05
0.0004
5e-05
0.0004
5e-05
0.0003
5e-05
0.0003
4e-05
0.0003
4e-05
0.0003
4e-05
0.0003
4e-05
0.0002
4e-05
0.0002
4e-05
0.0002
4e-05
0.0002
4e-05
0.0002
4e-05
0.0001
4e-05
0.0001
4e-05
0.0001
4e-05
0.0001
4e-05
0.0001
4e-05
0.0001
4e-05
9e-05
4e-05
9e-05
4e-05
8e-05
4e-05
8e-05
4e-05
8e-05
3e-05
8e-05
3e-05
9e-05
3e-05
9e-05
3e-05
0.0001
3e-05
0.0001
3e-05
0.0001
3e-05
0.0001
3e-05
0.0001
3e-05
0.0001
3e-05
0.0001
3e-05
0.0002
4e-05
0.0002
4e-05
0.0002
4e-05
0.0001
4e-05
0.0001
5e-05
0.0001
5e-05
0.0001
6e-05
0.0001
6e-05
0.0001
7e-05
8e-05
9e-05
-3e-05
-4e-05
-4e-05
-3e-05
-2e-05
-5e-05
-5e-05
-2e-05
-1e-05
-6e-05
-6e-05
-1e-05
-9e-06
-7e-05
-7e-05
-9e-06
-6e-06
-4e-06
-8e-05
-8e-05
-4e-06
-3e-06
-9e-05
-9e-05
-2e-06
-2e-06
-0.0001
-0.0001
3e-07
-7e-07
-0.0001
-0.0001
2e-06
-4e-08
-0.0001
-0.0001
3e-06
3e-07
-0.0001
-0.0001
4e-06
1e-07
-0.0001
-0.0001
5e-06
-4e-07
-0.0001
-0.0001
5e-06
-1e-06
-0.0001
-0.0001
5e-06
-3e-06
-9e-05
-9e-05
5e-06
-5e-06
-8e-05
-9e-05
4e-06
-8e-06
-7e-05
-8e-05
2e-06
-1e-05
-6e-05
-7e-05
7e-07
-1e-05
-6e-05
-6e-05
-1e-06
-2e-05
-5e-05
-5e-05
-3e-06
-2e-05
-4e-05
-4e-05
-4e-05
-5e-06
-2e-05
-4e-05
-4e-05
-6e-06
-2e-05
-4e-05
-4e-05
-7e-06
-2e-05
-4e-05
-4e-05
-7e-06
-2e-05
-4e-05
-4e-05
-7e-06
-2e-05
-5e-05
-5e-05
-6e-06
-1e-05
-5e-05
-5e-05
-4e-06
-1e-05
-6e-05
-6e-05
-3e-06
-7e-06
-6e-05
-7e-05
-4e-07
-3e-06
-7e-05
-7e-05
2e-06
2e-06
-8e-05
-8e-05
7e-06
4e-06
1e-05
-9e-05
-9e-05
7e-06
1e-05
-0.0001
-0.0001
9e-06
2e-05
-0.0001
-0.0001
1e-05
2e-05
-0.0001
-0.0001
1e-05
2e-05
-0.0002
-0.0002
1e-05
2e-05
-0.0002
-0.0002
1e-05
3e-05
-0.0002
-0.0002
1e-05
3e-05
-0.0002
-0.0002
1e-05
3e-05
-0.0003
-0.0003
1e-05
3e-05
-0.0003
-0.0003
1e-05
2e-05
-0.0003
-0.0003
9e-06
2e-05
-0.0003
-0.0003
7e-06
2e-05
-0.0003
-0.0003
6e-06
2e-05
-0.0003
-0.0003
5e-06
1e-05
-0.0003
-0.0003
-0.0004
4e-06
1e-05
-0.0004
-0.0004
4e-06
1e-05
-0.0004
-0.0004
4e-06
9e-06
-0.0004
-0.0004
5e-06
9e-06
-0.0004
-0.0003
5e-06
9e-06
-0.0003
-0.0003
7e-06
1e-05
-0.0003
-0.0003
8e-06
1e-05
-0.0003
-0.0003
1e-05
1e-05
-0.0003
-0.0003
1e-05
1e-05
-0.0003
-0.0003
2e-05
2e-05
-0.0003
-0.0003
2e-05
2e-05
2e-05
-0.0002
-0.0002
2e-05
3e-05
-0.0002
-0.0002
3e-05
3e-05
-0.0002
-0.0002
4e-05
4e-05
-0.0002
-0.0002
5e-05
5e-05
-0.0001
-0.0001
6e-05
6e-05
-0.0001
-0.0001
7e-05
7e-05
-0.0001
-0.0001
9e-05
9e-05
-9e-05
-8e-05
0.0001
0.0001
-8e-05
-7e-05
0.0001
0.0001
-7e-05
-6e-05
0.0001
0.0001
-6e-05
-5e-05
0.0001
0.0001
-5e-05
-4e-05
0.0001
0.0001
-4e-05
-4e-05
0.0001
0.0001
-4e-05
-3e-05
0.0001
0.0001
-3e-05
-3e-05
0.0001
0.0001
-3e-05
-2e-05
-2e-05
0.0001
0.0001
-2e-05
-2e-05
0.0001
0.0001
-2e-05
-2e-05
0.0001
0.0001
-2e-05
-2e-05
0.0001
0.0001
-2e-05
-3e-05
9e-05
9e-05
-3e-05
-4e-05
8e-05
8e-05
-4e-05
-4e-05
7e-05
7e-05
-4e-05
-5e-05
7e-05
7e-05
-5e-05
-6e-05
6e-05
6e-05
-6e-05
-7e-05
6e-05
6e-05
6e-05
-7e-05
-8e-05
6e-05
7e-05
-8e-05
-8e-05
7e-05
7e-05
-8e-05
-9e-05
7e-05
7e-05
-9e-05
-9e-05
8e-05
8e-05
-9e-05
-9e-05
8e-05
9e-05
-9e-05
-8e-05
9e-05
9e-05
-8e-05
-7e-05
0.0001
0.0001
-7e-05
-7e-05
0.0001
0.0001
-7e-05
-6e-05
0.0001
0.0001
-6e-05
-4e-05
0.0001
0.0001
-4e-05
-3e-05
0.0002
0.0002
-3e-05
-2e-05
0.0002
0.0002
-2e-05
-9e-06
0.0002
0.0002
-9e-06
1e-06
0.0002
0.0002
6e-07
1e-05
0.0002
0.0002
9e-06
2e-05
2e-05
0.0003
0.0003
2e-05
2e-05
0.0003
0.0003
2e-05
3e-05
0.0003
0.0003
3e-05
3e-05
0.0003
0.0003
3e-05
3e-05
0.0003
0.0004
3e-05
3e-05
0.0004
0.0004
3e-05
3e-05
0.0004
0.0004
4e-05
3e-05
0.0004
0.0004
4e-05
3e-05
0.0004
0.0004
4e-05
3e-05
0.0004
0.0004
4e-05
3e-05
0.0004
0.0004
0.0004
4e-05
3e-05
0.0004
0.0004
4e-05
3e-05
0.0004
0.0004
4e-05
3e-05
0.0004
0.0004
4e-05
2e-05
0.0004
0.0004
4e-05
2e-05
0.0004
0.0003
3e-05
2e-05
0.0003
0.0003
3e-05
2e-05
0.0003
0.0003
3e-05
2e-05
0.0003
0.0003
3e-05
2e-05
0.0003
0.0003
3e-05
2e-05
0.0002
0.0002
3e-05
2e-05
0.0002
0.0002
3e-05
2e-05
0.0002
0.0002
3e-05
2e-05
0.0002
0.0002
3e-05
3e-05
0.0002
0.0002
3e-05
3e-05
3e-05
0.0001
0.0001
4e-05
4e-05
0.0001
0.0001
4e-05
4e-05
0.0001
0.0001
4e-05
4e-05
0.0001
0.0001
4e-05
5e-05
0.0001
0.0001
4e-05
5e-05
0.0001
9e-05
5e-05
6e-05
9e-05
9e-05
5e-05
6e-05
9e-05
9e-05
5e-05
6e-05
8e-05
8e-05
5e-05
6e-05
8e-05
8e-05
5e-05
6e-05
8e-05
8e-05
5e-05
6e-05
8e-05
8e-05
5e-05
6e-05
9e-05
9e-05
5e-05
6e-05
9e-05
9e-05
4e-05
6e-05
0.0001
0.0001
4e-05
5e-05
0.0001
0.0001
4e-05
5e-05
0.0001
0.0001
4e-05
5e-05
0.0001
0.0001
4e-05
5e-05
0.0001
0.0001
4e-05
4e-05
0.0001
0.0001
4e-05
4e-05
0.0001
0.0002
4e-05
4e-05
0.0002
0.0002
4e-05
4e-05
0.0002
0.0002
4e-05
4e-05
0.0002
0.0002
4e-05
4e-05
0.0001
0.0001
4e-05
4e-05
0.0001
0.0001
4e-05
5e-05
0.0001
0.0001
5e-05
5e-05
0.0001
0.0001
5e-05
5e-05
0.0001
0.0001
6e-05
5e-05
0.0001
0.0001
6e-05
6e-05
9e-05
7e-05
8e-05
9e-05
6e-05
8e-05
7e-05
SCALARS strain_1 float
LOOKUP_TABLE default
-0.000160
-0.000167
-0.000169
-0.000094
-0.000144
-0.000055
-0.000191
-0.000259
-0.000256
-0.000311
-0.000295
-0.000395
-0.000349
-0.000390
-0.000526
-0.000422
-0.000647
-0.000358
-0.000912
-0.000369
-0.001068
-0.000330
-0.001441
-0.000093
-0.001834
0.000031
-0.002333
0.000267
-0.002787
0.000494
-0.003247
0.000742
-0.003823
0.001135
-0.004544
0.001625
-0.005204
0.002055
-0.005993
0.002583
-0.006857
-0.007682
0.003171
-0.008655
0.003892
-0.009779
0.004612
-0.010709
0.005467
-0.011897
0.006398
-0.013179
0.007391
-0.014309
0.008500
-0.015707
0.009674
-0.017014
0.010850
-0.018390
0.012202
-0.019951
0.013513
0.015047
-0.021434
0.016544
-0.023002
0.018095
-0.024573
0.019752
-0.026214
0.021594
-0.027757
0.023435
-0.029588
0.025263
-0.031313
0.027138
-0.033003
0.029207
-0.034814
0.031226
-0.036600
0.033255
-0.038386
0.035364
-0.040108
0.037436
-0.041930
0.039595
-0.043697
0.041794
-0.045564
-0.047312
0.043954
-0.048977
0.046105
-0.050731
0.048230
-0.052481
0.050447
-0.054138
0.052639
-0.055764
0.054798
-0.057409
0.056842
-0.058903
0.058911
-0.060366
0.060861
-0.061844
0.062901
-0.063242
0.064783
0.066600
-0.064499
0.068407
-0.065888
0.070121
-0.067064
0.071785
-0.068179
0.073309
-0.069180
0.074839
-0.070239
0.076137
-0.071081
0.077402
-0.071992
0.078477
-0.072663
0.079609
-0.073291
0.080533
-0.073850
0.081357
-0.074400
0.081982
-0.074687
0.082648
-0.075117
0.083113
-0.075189
0.083470
-0.075326
-0.075317
0.083738
-0.075278
0.083892
-0.075152
0.083871
-0.074918
0.083869
-0.074490
0.083604
-0.074033
0.083233
-0.073566
0.082797
-0.072985
0.082299
-0.072256
0.081571
-0.071555
0.080821
0.079916
-0.070681
0.078972
-0.069763
0.077956
-0.068784
0.076791
-0.067733
0.075425
-0.066553
0.074252
-0.065348
0.072812
-0.064212
0.071419
-0.062853
0.069833
-0.061482
0.068311
-0.060114
0.066655
-0.058635
0.064901
-0.057203
0.063266
-0.055715
0.061445
-0.054040
0.059628
-0.052511
0.057765
-0.050956
-0.049207
0.055948
-0.047693
0.053999
-0.046037
0.052208
-0.044355
0.050211
-0.042639
0.048314
-0.041039
0.046575
-0.039364
0.044543
-0.037739
0.042678
-0.036053
0.040852
-0.034443
0.038998
-0.032809
0.037209
-0.031312
0.035347
-0.029781
0.033539
-0.028185
0.031844
-0.026619
0.030115
-0.025117
0.028446
-0.023613
0.026823
-0.022361
0.025253
-0.021021
0.023613
-0.019652
0.022155
-0.018376
0.020777
-0.017086
0.019302
-0.015890
0.017972
-0.014717
0.016684
-0.013555
0.015420
-0.012545
0.014205
-0.011481
0.013044
-0.010560
0.011884
-0.009692
0.010909
-0.008900
0.009990
-0.007900
0.008993
-0.007178
0.008173
-0.006499
0.007402
-0.005697
0.006639
-0.005175
0.005835
-0.004478
0.005138
-0.004015
0.004593
-0.003532
0.003987
-0.003007
0.003417
-0.002622
0.002961
-0.002228
0.002505
-0.001861
0.002144