# vtk DataFile Version 2.0
Generated volume Mesh
ASCII
DATASET UNSTRUCTURED_GRID
POINTS 994 float
-0.416146 -0.294827 0.000000
-0.409251 -0.287252 0.000000
-0.421925 -0.286495 0.000000
-0.410201 -0.303043 0.000000
-0.427538 -0.278049 0.000000
-0.404095 -0.311138 0.000000
-0.432982 -0.269494 0.000000
-0.397829 -0.319111 0.000000
-0.438254 -0.260832 0.000000
-0.391406 -0.326958 0.000000
-0.443353 -0.252067 0.000000
-0.384828 -0.334675 0.000000
-0.448277 -0.243202 0.000000
-0.378098 -0.342260 0.000000
-0.453024 -0.234242 0.000000
-0.371218 -0.349710 0.000000
-0.457592 -0.225188 0.000000
-0.364192 -0.357021 0.000000
-0.461979 -0.216046 0.000000
-0.357021 -0.364192 0.000000
-0.466183 -0.206818 0.000000
-0.349710 -0.371218 0.000000
-0.470203 -0.197508 0.000000
-0.342260 -0.378098 0.000000
-0.474037 -0.188120 0.000000
-0.334675 -0.384828 0.000000
-0.477683 -0.178658 0.000000
-0.326958 -0.391406 0.000000
-0.481141 -0.169126 0.000000
-0.319111 -0.397829 0.000000
-0.484408 -0.159526 0.000000
-0.311138 -0.404095 0.000000
-0.487484 -0.149864 0.000000
-0.303043 -0.410201 0.000000
-0.490368 -0.140141 0.000000
-0.294827 -0.416146 0.000000
-0.493057 -0.130363 0.000000
-0.286495 -0.421925 0.000000
-0.495552 -0.120532 0.000000
-0.278049 -0.427538 0.000000
-0.497851 -0.110654 0.000000
-0.269494 -0.432982 0.000000
-0.499953 -0.100732 0.000000
-0.260832 -0.438254 0.000000
-0.501857 -0.090771 0.000000
-0.252067 -0.443353 0.000000
-0.503563 -0.080774 0.000000
-0.243202 -0.448277 0.000000
-0.505069 -0.070746 0.000000
-0.234242 -0.453024 0.000000
-0.506376 -0.060691 0.000000
-0.225188 -0.457592 0.000000
-0.507482 -0.050612 0.000000
-0.216046 -0.461979 0.000000
-0.508388 -0.040514 0.000000
-0.206818 -0.466183 0.000000
-0.509093 -0.030400 0.000000
-0.197508 -0.470203 0.000000
-0.509597 -0.020274 0.000000
-0.188120 -0.474037 0.000000
-0.509899 -0.010139 0.000000
-0.178658 -0.477683 0.000000
-0.510000 0.000000 0.000000
-0.169126 -0.481141 0.000000
-0.509899 0.010139 0.000000
-0.509597 0.020274 0.000000
-0.159526 -0.484408 0.000000
-0.509093 0.030400 0.000000
-0.149864 -0.487484 0.000000
-0.508388 0.040514 0.000000
-0.140141 -0.490368 0.000000
-0.507482 0.050612 0.000000
-0.130363 -0.493057 0.000000
-0.506376 0.060691 0.000000
-0.120532 -0.495552 0.000000
-0.505069 0.070746 0.000000
-0.110654 -0.497851 0.000000
-0.503563 0.080774 0.000000
-0.100732 -0.499953 0.000000
-0.501857 0.090771 0.000000
-0.090771 -0.501857 0.000000
-0.499953 0.100732 0.000000
-0.080774 -0.503563 0.000000
-0.497851 0.110654 0.000000
-0.070746 -0.505069 0.000000
-0.495552 0.120532 0.000000
-0.060691 -0.506376 0.000000
-0.493057 0.130363 0.000000
-0.050612 -0.507482 0.000000
-0.490368 0.140141 0.000000
-0.040514 -0.508388 0.000000
-0.487484 0.149864 0.000000
-0.484408 0.159526 0.000000
-0.030400 -0.509093 0.000000
-0.020274 -0.509597 0.000000
-0.481141 0.169126 0.000000
-0.010139 -0.509899 0.000000
-0.477683 0.178658 0.000000
0.000000 -0.510000 0.000000
-0.474037 0.188120 0.000000
0.010139 -0.509899 0.000000
-0.470203 0.197508 0.000000
0.020274 -0.509597 0.000000
-0.466183 0.206818 0.000000
0.030400 -0.509093 0.000000
-0.461979 0.216046 0.000000
0.040514 -0.508388 0.000000
-0.457592 0.225188 0.000000
0.050612 -0.507482 0.000000
-0.453024 0.234242 0.000000
0.060691 -0.506376 0.000000
-0.448277 0.243202 0.000000
0.070746 -0.505069 0.000000
-0.443353 0.252067 0.000000
0.080774 -0.503563 0.000000
-0.438254 0.260832 0.000000
0.090771 -0.501857 0.000000
-0.432982 0.269494 0.000000
0.100732 -0.499953 0.000000
-0.427538 0.278049 0.000000
0.110654 -0.497851 0.000000
-0.421925 0.286495 0.000000
0.120532 -0.495552 0.000000
-0.416146 0.294827 0.000000
0.130363 -0.493057 0.000000
-0.410201 0.303043 0.000000
0.140141 -0.490368 0.000000
-0.404095 0.311138 0.000000
0.149864 -0.487484 0.000000
0.159526 -0.484408 0.000000
-0.397829 0.319111 0.000000
0.169126 -0.481141 0.000000
-0.391406 0.326958 0.000000
0.178658 -0.477683 0.000000
-0.384828 0.334675 0.000000
0.188120 -0.474037 0.000000
-0.378098 0.342260 0.000000
0.197508 -0.470203 0.000000
-0.371218 0.349710 0.000000
0.206818 -0.466183 0.000000
-0.364192 0.357021 0.000000
0.216046 -0.461979 0.000000
-0.357021 0.364192 0.000000
0.225188 -0.457592 0.000000
-0.349710 0.371218 0.000000
0.234242 -0.453024 0.000000
-0.342260 0.378098 0.000000
0.243202 -0.448277 0.000000
-0.334675 0.384828 0.000000
0.252067 -0.443353 0.000000
-0.326958 0.391406 0.000000
0.260832 -0.438254 0.000000
-0.319111 0.397829 0.000000
0.269494 -0.432982 0.000000
-0.311138 0.404095 0.000000
0.278049 -0.427538 0.000000
-0.303043 0.410201 0.000000
0.286495 -0.421925 0.000000
-0.294827 0.416146 0.000000
0.294827 -0.416146 0.000000
-0.286495 0.421925 0.000000
0.303043 -0.410201 0.000000
-0.278049 0.427538 0.000000
0.311138 -0.404095 0.000000
-0.269494 0.432982 0.000000
0.319111 -0.397829 0.000000
-0.260832 0.438254 0.000000
0.326958 -0.391406 0.000000
-0.252067 0.443353 0.000000
0.334675 -0.384828 0.000000
-0.243202 0.448277 0.000000
0.342260 -0.378098 0.000000
-0.234242 0.453024 0.000000
0.349710 -0.371218 0.000000
-0.225188 0.457592 0.000000
0.357021 -0.364192 0.000000
-0.216046 0.461979 0.000000
0.364192 -0.357021 0.000000
-0.206818 0.466183 0.000000
0.371218 -0.349710 0.000000
-0.197508 0.470203 0.000000
0.378098 -0.342260 0.000000
-0.188120 0.474037 0.000000
0.384828 -0.334675 0.000000
-0.178658 0.477683 0.000000
0.391406 -0.326958 0.000000
-0.169126 0.481141 0.000000
0.397829 -0.319111 0.000000
-0.159526 0.484408 0.000000
0.404095 -0.311138 0.000000
-0.149864 0.487484 0.000000
0.410201 -0.303043 0.000000
-0.140141 0.490368 0.000000
0.416146 -0.294827 0.000000
-0.130363 0.493057 0.000000
0.421925 -0.286495 0.000000
-0.120532 0.495552 0.000000
0.427538 -0.278049 0.000000
-0.110654 0.497851 0.000000
0.432982 -0.269494 0.000000
-0.100732 0.499953 0.000000
0.438254 -0.260832 0.000000
-0.090771 0.501857 0.000000
0.443353 -0.252067 0.000000
-0.080774 0.503563 0.000000
0.448277 -0.243202 0.000000
-0.070746 0.505069 0.000000
0.453024 -0.234242 0.000000
-0.060691 0.506376 0.000000
0.457592 -0.225188 0.000000
-0.050612 0.507482 0.000000
0.461979 -0.216046 0.000000
-0.040514 0.508388 0.000000
0.466183 -0.206818 0.000000
-0.030400 0.509093 0.000000
0.470203 -0.197508 0.000000
-0.020274 0.509597 0.000000
0.474037 -0.188120 0.000000
-0.010139 0.509899 0.000000
0.477683 -0.178658 0.000000
0.000000 0.510000 0.000000
0.481141 -0.169126 0.000000
0.010139 0.509899 0.000000
0.484408 -0.159526 0.000000
0.020274 0.509597 0.000000
0.487484 -0.149864 0.000000
0.030400 0.509093 0.000000
0.490368 -0.140141 0.000000
0.040514 0.508388 0.000000
0.493057 -0.130363 0.000000
0.050612 0.507482 0.000000
0.495552 -0.120532 0.000000
0.060691 0.506376 0.000000
0.497851 -0.110654 0.000000
0.070746 0.505069 0.000000
0.499953 -0.100732 0.000000
0.080774 0.503563 0.000000
0.501857 -0.090771 0.000000
0.090771 0.501857 0.000000
0.503563 -0.080774 0.000000
0.100732 0.499953 0.000000
0.505069 -0.070746 0.000000
0.110654 0.497851 0.000000
0.506376 -0.060691 0.000000
0.120532 0.495552 0.000000
0.507482 -0.050612 0.000000
0.130363 0.493057 0.000000
0.508388 -0.040514 0.000000
0.140141 0.490368 0.000000
0.509093 -0.030400 0.000000
0.149864 0.487484 0.000000
0.509597 -0.020274 0.000000
0.159526 0.484408 0.000000
0.509899 -0.010139 0.000000
0.169126 0.481141 0.000000
0.510000 0.000000 0.000000
0.178658 0.477683 0.000000
0.509899 0.010139 0.000000
0.188120 0.474037 0.000000
0.509597 0.020274 0.000000
0.197508 0.470203 0.000000
0.509093 0.030400 0.000000
0.206818 0.466183 0.000000
0.508388 0.040514 0.000000
0.216046 0.461979 0.000000
0.507482 0.050612 0.000000
0.225188 0.457592 0.000000
0.506376 0.060691 0.000000
0.234242 0.453024 0.000000
0.505069 0.070746 0.000000
0.243202 0.448277 0.000000
0.503563 0.080774 0.000000
0.252067 0.443353 0.000000
0.501857 0.090771 0.000000
0.260832 0.438254 0.000000
0.499953 0.100732 0.000000
0.269494 0.432982 0.000000
0.497851 0.110654 0.000000
0.278049 0.427538 0.000000
0.495552 0.120532 0.000000
0.286495 0.421925 0.000000
0.493057 0.130363 0.000000
0.294827 0.416146 0.000000
0.490368 0.140141 0.000000
0.303043 0.410201 0.000000
0.487484 0.149864 0.000000
0.311138 0.404095 0.000000
0.484408 0.159526 0.000000
0.319111 0.397829 0.000000
0.481141 0.169126 0.000000
0.326958 0.391406 0.000000
0.477683 0.178658 0.000000
0.334675 0.384828 0.000000
0.474037 0.188120 0.000000
0.342260 0.378098 0.000000
0.470203 0.197508 0.000000
0.349710 0.371218 0.000000
0.466183 0.206818 0.000000
0.357021 0.364192 0.000000
0.461979 0.216046 0.000000
0.364192 0.357021 0.000000
0.457592 0.225188 0.000000
0.371218 0.349710 0.000000
0.453024 0.234242 0.000000
0.378098 0.342260 0.000000
0.448277 0.243202 0.000000
0.384828 0.334675 0.000000
0.443353 0.252067 0.000000
0.391406 0.326958 0.000000
0.438254 0.260832 0.000000
0.397829 0.319111 0.000000
0.432982 0.269494 0.000000
0.404095 0.311138 0.000000
0.427538 0.278049 0.000000
0.410201 0.303043 0.000000
0.421925 0.286495 0.000000
0.416146 0.294827 0.000000
-0.415025 -0.278844 0.000000
-0.403306 -0.295541 0.000000
-0.420627 -0.270320 0.000000
-0.397194 -0.303706 0.000000
-0.426054 -0.261684 0.000000
-0.390916 -0.311745 0.000000
-0.431303 -0.252938 0.000000
-0.384475 -0.319654 0.000000
-0.436373 -0.244088 0.000000
-0.377875 -0.327430 0.000000
-0.441261 -0.235136 0.000000
-0.371117 -0.335070 0.000000
-0.445965 -0.226086 0.000000
-0.364205 -0.342571 0.000000
-0.450484 -0.216942 0.000000
-0.357141 -0.349929 0.000000
-0.454816 -0.207707 0.000000
-0.349929 -0.357141 0.000000
-0.458958 -0.198386 0.000000
-0.342571 -0.364205 0.000000
-0.462910 -0.188983 0.000000
-0.335070 -0.371117 0.000000
-0.466668 -0.179501 0.000000
-0.327430 -0.377875 0.000000
-0.470233 -0.169944 0.000000
-0.319654 -0.384475 0.000000
-0.473602 -0.160317 0.000000
-0.311745 -0.390916 0.000000
-0.476773 -0.150623 0.000000
-0.303706 -0.397194 0.000000
-0.479747 -0.140866 0.000000
-0.295541 -0.403306 0.000000
-0.482520 -0.131050 0.000000
-0.287252 -0.409251 0.000000
-0.485094 -0.121178 0.000000
[...]
POINT_DATA 994
SCALARS u1 float
LOOKUP_TABLE default
-0.07
-0.08
-0.08
-0.07
-0.09
-0.06
-0.1
-0.05
-0.1
-0.04
-0.1
-0.04
-0.1
-0.03
-0.1
-0.03
-0.2
-0.03
-0.2
-0.03
-0.2
-0.03
-0.2
-0.03
-0.2
-0.03
-0.3
-0.03
-0.3
-0.03
-0.3
-0.04
-0.3
-0.04
-0.3
-0.04
-0.4
-0.04
-0.4
-0.05
-0.4
-0.05
-0.4
-0.05
-0.5
-0.06
-0.5
-0.06
-0.5
-0.07
-0.5
-0.07
-0.5
-0.08
-0.5
-0.09
-0.5
-0.09
-0.6
-0.1
-0.6
-0.1
-0.6
-0.1
-0.6
-0.6
-0.1
-0.6
-0.1
-0.5
-0.1
-0.5
-0.1
-0.5
-0.1
-0.5
-0.1
-0.5
-0.1
-0.5
-0.1
-0.5
-0.1
-0.5
-0.1
-0.4
-0.1
-0.4
-0.1
-0.4
-0.1
-0.4
-0.4
-0.1
-0.1
-0.3
-0.1
-0.3
-0.1
-0.3
-0.1
-0.3
-0.1
-0.3
-0.1
-0.3
-0.1
-0.2
-0.1
-0.2
-0.1
-0.2
-0.1
-0.2
-0.1
-0.2
-0.1
-0.2
-0.1
-0.2
-0.1
-0.2
-0.2
-0.2
-0.2
-0.2
-0.2
-0.2
-0.2
-0.2
-0.2
-0.2
-0.2
-0.2
-0.2
-0.2
-0.2
-0.2
-0.2
-0.2
-0.2
-0.2
-0.2
-0.2
-0.2
-0.2
-0.2
-0.2
-0.2
-0.3
-0.2
-0.3
-0.2
-0.3
-0.2
-0.3
-0.2
-0.3
-0.2
-0.3
-0.2
-0.3
-0.2
-0.3
-0.2
-0.3
-0.2
-0.3
-0.2
-0.3
-0.2
-0.3
-0.3
-0.3
-0.3
-0.3
-0.3
-0.3
-0.3
-0.3
-0.3
-0.3
-0.3
-0.3
-0.3
-0.3
-0.3
-0.3
-0.3
-0.3
-0.3
-0.3
-0.3
-0.3
-0.3
-0.3
-0.3
-0.3
-0.3
-0.3
-0.4
-0.3
-0.4
-0.3
-0.4
-0.3
-0.4
-0.2
-0.4
-0.2
-0.4
-0.2
-0.4
-0.2
-0.4
-0.2
-0.4
-0.2
-0.4
-0.2
-0.4
-0.1
-0.4
-0.1
-0.4
-0.1
-0.3
-0.09
-0.3
-0.07
-0.3
-0.05
-0.3
-0.03
-0.3
-0.01
-0.3
0.006
-0.4
0.02
-0.4
0.04
-0.4
0.05
-0.4
0.06
-0.4
0.07
-0.4
0.08
-0.4
0.09
-0.4
0.09
-0.4
0.09
-0.4
0.09
-0.4
0.08
-0.4
0.07
-0.4
0.06
-0.4
0.04
-0.4
0.02
-0.4
0.006
-0.4
-0.01
-0.4
-0.03
-0.4
-0.06
-0.4
-0.08
-0.5
-0.1
-0.5
-0.1
-0.5
-0.2
-0.5
-0.2
-0.5
-0.2
-0.5
-0.2
-0.5
-0.2
-0.5
-0.3
-0.5
-0.3
-0.5
-0.3
-0.5
-0.3
-0.5
-0.3
-0.5
-0.4
-0.5
-0.4
-0.5
-0.4
-0.5
-0.4
-0.5
-0.4
-0.4
-0.4
-0.4
-0.4
-0.4
-0.09
-0.07
-0.1
-0.07
-0.1
-0.06
-0.1
-0.05
-0.1
-0.04
-0.1
-0.04
-0.2
-0.03
-0.2
-0.03
-0.2
-0.03
-0.2
-0.03
-0.2
-0.03
-0.3
-0.03
-0.3
-0.03
-0.3
-0.03
-0.3
-0.03
-0.3
-0.04
-0.4
-0.04
-0.4
-0.04
-0.4
-0.04
-0.4
-0.05
-0.5
-0.05
-0.5
-0.05
-0.5
-0.06
-0.5
-0.06
-0.5
-0.06
-0.5
-0.07
-0.5
-0.07
-0.6
-0.08
-0.6
-0.09
-0.6
-0.09
-0.6
-0.1
-0.6
-0.1
-0.6
-0.1
-0.5
-0.1
-0.5
-0.1
-0.5
-0.1
-0.5
-0.1
-0.5
-0.1
-0.5
-0.1
-0.5
-0.1
-0.4
-0.1
-0.4
-0.1
-0.4
-0.1
-0.4
-0.1
-0.4
-0.1
-0.4
-0.1
-0.3
-0.1
-0.3
-0.1
-0.3
-0.1
-0.3
-0.1
-0.3
-0.1
-0.3
-0.1
-0.2
-0.2
-0.2
-0.2
-0.2
-0.2
-0.2
-0.2
-0.2
-0.2
-0.2
-0.2
-0.2
-0.2
-0.2
-0.2
-0.2
-0.2
-0.2
-0.2
-0.2
-0.2
-0.2
-0.2
-0.2
-0.2
-0.2
-0.2
-0.2
-0.2
-0.2
-0.2
-0.2
-0.2
-0.2
-0.2
-0.2
-0.3
-0.2
-0.3
-0.2
-0.3
-0.2
-0.3
-0.2
-0.3
-0.2
-0.3
-0.2
-0.3
-0.2
-0.3
-0.2
-0.3
-0.2
-0.3
-0.2
-0.3
-0.2
-0.3
-0.2
-0.3
-0.2
-0.3
-0.3
-0.3
-0.3
-0.3
-0.3
-0.3
-0.3
-0.3
-0.3
-0.3
-0.3
-0.3
-0.3
-0.3
-0.3
-0.3
-0.3
-0.3
-0.3
-0.3
-0.3
-0.3
-0.3
-0.3
-0.3
-0.3
-0.3
-0.3
-0.3
-0.3
-0.3
-0.2
-0.3
-0.2
-0.3
-0.2
-0.3
-0.2
-0.3
-0.2
-0.4
-0.2
-0.4
-0.2
-0.4
-0.1
-0.4
-0.1
-0.4
-0.1
-0.4
-0.09
-0.4
-0.07
-0.4
-0.05
-0.4
-0.03
-0.4
-0.01
-0.4
0.005
-0.4
0.02
-0.4
0.04
-0.4
0.05
-0.4
0.06
-0.4
0.07
-0.4
0.08
-0.4
0.09
-0.4
0.09
-0.4
0.09
-0.4
0.09
-0.4
0.08
-0.4
0.07
-0.4
0.06
-0.4
0.04
-0.4
0.02
-0.4
0.006
-0.4
-0.01
-0.5
-0.04
-0.5
-0.06
-0.5
-0.08
-0.5
-0.1
-0.5
-0.1
-0.5
-0.2
-0.5
-0.2
-0.5
-0.2
-0.5
-0.2
-0.5
-0.2
-0.5
-0.3
-0.5
-0.3
-0.5
-0.3
-0.5
-0.3
-0.5
-0.3
-0.5
-0.4
-0.5
-0.4
-0.5
-0.4
-0.4
-0.4
-0.4
-0.4
-0.4
-0.4
-0.4
-0.08
-0.07
-0.09
-0.07
-0.1
-0.06
-0.1
-0.05
-0.1
-0.04
-0.1
-0.04
-0.1
-0.2
-0.03
-0.2
-0.2
-0.03
-0.2
-0.2
-0.03
-0.2
-0.2
-0.03
-0.2
-0.2
-0.03
-0.2
-0.2
-0.03
-0.3
-0.3
-0.03
-0.3
-0.3
-0.03
-0.3
-0.03
-0.3
-0.04
-0.4
-0.04
-0.4
-0.04
-0.4
-0.04
-0.4
-0.05
-0.4
-0.05
-0.5
-0.05
-0.5
-0.06
-0.5
-0.06
-0.07
-0.5
-0.07
-0.07
-0.5
-0.08
-0.07
-0.5
-0.08
-0.08
-0.08
-0.09
-0.6
-0.09
-0.09
-0.6
-0.1
-0.1
-0.6
-0.1
-0.1
-0.6
-0.1
-0.6
-0.1
-0.6
-0.1
-0.5
-0.1
-0.5
-0.1
-0.5
-0.1
-0.5
-0.1
-0.5
-0.1
-0.5
-0.1
-0.5
-0.1
-0.4
-0.1
-0.4
-0.1
-0.4
-0.1
-0.4
-0.4
-0.4
-0.1
-0.3
-0.3
-0.1
-0.3
-0.3
-0.1
-0.3
-0.3
-0.1
-0.3
-0.3
-0.1
-0.3
-0.3
-0.1
-0.3
-0.3
-0.1
-0.3
-0.2
-0.1
-0.2
-0.1
-0.2
-0.1
-0.2
-0.1
-0.2
-0.2
-0.2
-0.2
-0.2
-0.2
-0.2
-0.2
-0.2
-0.2
-0.2
-0.2
-0.2
-0.2
-0.2
-0.2
-0.2
-0.2
-0.2
-0.2
-0.2
-0.2
-0.2
-0.2
-0.2
-0.2
-0.2
-0.2
-0.2
-0.2
-0.2
-0.2
-0.2
-0.2
-0.2
-0.2
-0.2
-0.2
-0.2
-0.3
-0.2
-0.3
-0.2
-0.3
-0.2
-0.3
-0.2
-0.3
-0.2
-0.3
-0.2
-0.3
-0.2
-0.3
-0.2
-0.3
-0.2
-0.3
-0.2
-0.3
-0.2
-0.3
-0.2
-0.3
-0.3
-0.3
-0.3
-0.3
-0.3
-0.3
-0.3
-0.3
-0.3
-0.3
-0.3
-0.3
-0.3
-0.3
-0.3
-0.3
-0.3
-0.3
-0.3
-0.3
-0.3
-0.3
-0.3
-0.3
-0.3
-0.3
-0.3
-0.3
-0.3
-0.3
-0.3
-0.3
-0.3
-0.3
-0.3
-0.3
-0.3
-0.3
-0.3
-0.3
-0.4
-0.2
-0.2
-0.4
-0.2
-0.2
-0.4
-0.2
-0.2
-0.4
-0.2
-0.2
-0.4
-0.2
-0.2
-0.4
-0.2
-0.2
-0.4
-0.2
-0.2
-0.4
-0.1
-0.1
-0.4
-0.1
-0.4
-0.1
-0.4
-0.08
-0.4
-0.06
-0.4
-0.04
-0.4
-0.02
-0.4
-0.007
-0.4
0.01
-0.4
0.03
-0.4
0.04
-0.4
0.06
-0.4
0.07
-0.4
0.08
-0.4
0.09
-0.4
0.09
-0.4
-0.4
0.09
-0.4
-0.4
0.09
-0.4
-0.4
0.08
-0.4
-0.4
0.08
-0.4
-0.4
0.06
-0.4
-0.4
0.05
-0.4
-0.4
0.03
-0.4
0.02
-0.4
-0.004
-0.4
-0.03
-0.4
-0.05
-0.5
-0.07
-0.5
-0.09
-0.5
-0.1
-0.5
-0.1
-0.5
-0.2
-0.5
-0.2
-0.5
-0.2
-0.2
-0.5
-0.2
-0.2
-0.5
-0.3
-0.3
-0.5
-0.3
-0.3
-0.5
-0.3
-0.3
-0.5
-0.3
-0.3
-0.5
-0.3
-0.3
-0.5
-0.3
-0.5
-0.4
-0.5
-0.4
-0.5
-0.4
-0.5
-0.4
-0.4
-0.4
-0.4
-0.4
-0.4
-0.4
SCALARS u2 float
LOOKUP_TABLE default
-0.2
-0.2
-0.2
-0.2
-0.2
-0.2
-0.2
-0.2
-0.2
-0.2
-0.2
-0.2
-0.2
-0.2
-0.3
-0.2
-0.3
-0.2
-0.3
-0.2
-0.3
-0.2
-0.3
-0.2
-0.3
-0.2
-0.3
-0.2
-0.3
-0.2
-0.3
-0.2
-0.3
-0.2
-0.3
-0.2
-0.3
-0.2
-0.3
-0.2
-0.3
-0.2
-0.3
-0.2
-0.4
-0.2
-0.4
-0.2
-0.4
-0.2
-0.4
-0.2
-0.4
-0.3
-0.4
-0.3
-0.4
-0.3
-0.4
-0.3
-0.4
-0.3
-0.4
-0.3
-0.3
-0.3
-0.4
-0.3
-0.4
-0.3
-0.4
-0.3
-0.4
-0.3
-0.4
-0.3
-0.4
-0.3
-0.5
-0.3
-0.5
-0.3
-0.5
-0.4
-0.5
-0.4
-0.5
-0.4
-0.5
-0.4
-0.5
-0.4
-0.4
-0.6
-0.6
-0.4
-0.6
-0.4
-0.6
-0.4
-0.6
-0.4
-0.5
-0.4
-0.5
-0.4
-0.5
-0.4
-0.5
-0.4
-0.5
-0.4
-0.5
-0.4
-0.5
-0.4
-0.4
-0.4
-0.4
-0.4
-0.4
-0.4
-0.4
-0.5
-0.4
-0.5
-0.3
-0.5
-0.3
-0.3
-0.5
-0.3
-0.5
-0.2
-0.5
-0.2
-0.5
-0.2
-0.5
-0.2
-0.5
-0.2
-0.5
-0.1
-0.5
-0.1
-0.5
-0.1
-0.5
-0.1
-0.4
-0.1
-0.4
-0.09
-0.4
-0.08
-0.4
-0.07
-0.4
-0.06
-0.4
-0.05
-0.4
-0.05
-0.4
-0.04
-0.4
-0.03
-0.4
-0.03
-0.4
-0.02
-0.3
-0.02
-0.3
-0.02
-0.3
-0.01
-0.3
-0.01
-0.3
-0.02
-0.3
-0.02
-0.2
-0.02
-0.2
-0.02
-0.2
-0.03
-0.2
-0.03
-0.1
-0.03
-0.1
-0.03
-0.1
-0.04
-0.08
-0.04
-0.05
-0.05
-0.03
-0.05
-0.01
-0.06
0.008
-0.06
0.03
-0.07
0.04
-0.07
0.06
-0.08
0.07
-0.08
0.08
-0.09
0.09
-0.1
0.09
-0.1
0.09
-0.1
0.09
-0.1
0.08
-0.1
0.07
-0.1
0.06
-0.1
0.05
-0.1
0.04
-0.1
0.02
-0.1
0.003
-0.1
-0.01
-0.1
-0.03
-0.1
-0.05
-0.1
-0.07
-0.1
-0.09
-0.1
-0.1
-0.1
-0.1
-0.1
-0.1
-0.1
-0.2
-0.1
-0.2
-0.1
-0.2
-0.1
-0.2
-0.1
-0.2
-0.1
-0.2
-0.1
-0.3
-0.1
-0.3
-0.1
-0.3
-0.1
-0.3
-0.1
-0.3
-0.1
-0.3
-0.1
-0.3
-0.2
-0.3
-0.2
-0.3
-0.2
-0.3
-0.2
-0.3
-0.2
-0.3
-0.2
-0.3
-0.2
-0.3
-0.2
-0.3
-0.2
-0.3
-0.2
-0.3
-0.2
-0.3
-0.2
-0.3
-0.2
-0.3
-0.3
-0.3
-0.3
-0.3
-0.3
-0.3
-0.3
-0.3
-0.3
-0.3
-0.2
-0.2
-0.2
-0.2
-0.2
-0.2
-0.2
-0.2
-0.2
-0.2
-0.2
-0.2
-0.2
-0.2
-0.3
-0.2
-0.3
-0.2
-0.3
-0.2
-0.3
-0.2
-0.3
-0.2
-0.3
-0.2
-0.3
-0.2
-0.3
-0.2
-0.3
-0.2
-0.3
-0.2
-0.3
-0.2
-0.3
-0.2
-0.3
-0.2
-0.3
-0.2
-0.3
-0.2
-0.3
-0.2
-0.3
-0.2
-0.3
-0.3
-0.3
-0.3
-0.3
-0.3
-0.3
-0.3
-0.3
-0.3
-0.3
-0.3
-0.4
-0.4
-0.4
-0.4
-0.4
-0.4
-0.4
-0.4
-0.4
-0.4
-0.4
-0.4
-0.4
-0.5
-0.4
-0.5
-0.4
-0.5
-0.4
-0.5
-0.4
-0.5
-0.4
-0.5
-0.4
-0.5
-0.4
-0.6
-0.4
-0.6
-0.4
-0.6
-0.4
-0.6
-0.4
-0.6
-0.4
-0.5
-0.4
-0.5
-0.4
-0.5
-0.4
-0.5
-0.4
-0.5
-0.4
-0.5
-0.4
-0.5
-0.4
-0.4
-0.4
-0.4
-0.4
-0.4
-0.5
-0.4
-0.5
-0.4
-0.5
-0.3
-0.5
-0.3
-0.5
-0.3
-0.5
-0.3
-0.5
-0.2
-0.5
-0.2
-0.5
-0.2
-0.5
-0.2
-0.5
-0.2
-0.5
-0.1
-0.5
-0.1
-0.4
-0.1
-0.4
-0.1
-0.4
-0.1
-0.4
-0.09
-0.4
-0.08
-0.4
-0.07
-0.4
-0.06
-0.4
-0.05
-0.4
-0.05
-0.4
-0.04
-0.4
-0.03
-0.3
-0.03
-0.3
-0.02
-0.3
-0.02
-0.3
-0.02
-0.3
-0.01
-0.3
-0.01
-0.2
-0.02
-0.2
-0.02
-0.2
-0.02
-0.2
-0.02
-0.1
-0.02
-0.1
-0.03
-0.1
-0.03
-0.08
-0.03
-0.05
-0.04
-0.03
-0.04
-0.01
-0.04
0.008
-0.05
0.03
-0.05
0.04
-0.06
0.06
-0.06
0.07
-0.07
0.08
-0.07
0.09
-0.08
0.09
-0.08
0.09
-0.09
0.09
-0.1
0.08
-0.1
0.07
-0.1
0.06
-0.1
0.05
-0.1
0.03
-0.1
0.02
-0.1
0.002
-0.1
-0.02
-0.1
-0.03
-0.1
-0.05
-0.1
-0.07
-0.1
-0.09
-0.1
-0.1
-0.1
-0.1
-0.1
-0.2
-0.1
-0.2
-0.1
-0.2
-0.1
-0.2
-0.1
-0.2
-0.1
-0.2
-0.1
-0.2
-0.1
-0.3
-0.2
-0.3
-0.2
-0.3
-0.2
-0.3
-0.2
-0.3
-0.2
-0.3
-0.2
-0.3
-0.2
-0.3
-0.2
-0.3
-0.2
-0.3
-0.2
-0.3
-0.2
-0.3
-0.2
-0.3
-0.2
-0.3
-0.2
-0.3
-0.2
-0.3
-0.2
-0.3
-0.2
-0.3
-0.3
-0.3
-0.3
-0.3
-0.3
-0.3
-0.3
-0.3
-0.3
-0.3
-0.3
-0.3
-0.2
-0.2
-0.2
-0.2
-0.2
-0.2
-0.2
-0.2
-0.2
-0.2
-0.2
-0.2
-0.2
-0.3
-0.2
-0.3
-0.3
-0.2
-0.3
-0.3
-0.2
-0.3
-0.3
-0.2
-0.3
-0.3
-0.2
-0.3
-0.3
-0.2
-0.3
-0.3
-0.2
-0.3
-0.3
-0.2
-0.3
-0.2
-0.3
-0.2
-0.3
-0.2
-0.3
-0.2
-0.3
-0.2
-0.3
-0.2
-0.3
-0.2
-0.3
-0.2
-0.3
-0.2
-0.3
-0.2
-0.2
-0.3
-0.3
-0.3
-0.4
-0.3
-0.3
-0.4
-0.3
-0.3
-0.3
-0.3
-0.4
-0.3
-0.3
-0.4
-0.3
-0.3
-0.4
-0.3
-0.3
-0.3
-0.4
-0.3
-0.4
-0.3
-0.4
-0.3
-0.4
-0.3
-0.4
-0.4
-0.5
-0.4
-0.5
-0.4
-0.5
-0.4
-0.5
-0.4
-0.5
-0.4
-0.5
-0.4
-0.5
-0.4
-0.5
-0.4
-0.4
-0.4
-0.6
-0.4
-0.4
-0.6
-0.4
-0.4
-0.6
-0.4
-0.4
-0.6
-0.4
-0.4
-0.5
-0.4
-0.4
-0.5
-0.4
-0.4
-0.5
-0.4
-0.4
-0.5
-0.4
-0.5
-0.4
-0.5
-0.4
-0.4
-0.4
-0.4
-0.4
-0.4
-0.4
-0.4
-0.5
-0.4
-0.5
-0.3
-0.5
-0.3
-0.5
-0.3
-0.3
-0.5
-0.3
-0.3
-0.5
-0.2
-0.2
-0.5
-0.2
-0.2
-0.5
-0.2
-0.2
-0.5
-0.2
-0.2
-0.5
-0.2
-0.2
-0.5
-0.1
-0.2
-0.5
-0.1
-0.5
-0.1
-0.4
-0.1
-0.4
-0.1
-0.4
-0.09
-0.4
-0.08
-0.4
-0.07
-0.4
-0.06
-0.4
-0.05
-0.4
-0.05
-0.4
-0.04
-0.4
-0.03
-0.4
-0.03
-0.3
-0.3
-0.02
-0.3
-0.3
-0.02
-0.3
-0.3
-0.02
-0.3
-0.3
-0.01
-0.3
-0.3
-0.01
-0.2
-0.3
-0.02
-0.2
-0.2
-0.02
-0.2
-0.2
-0.02
-0.2
-0.02
-0.2
-0.02
-0.1
-0.03
-0.1
-0.03
-0.09
-0.03
-0.07
-0.04
-0.04
-0.04
-0.03
-0.04
-0.001
-0.05
0.02
-0.05
-0.06
0.03
-0.06
-0.06
0.05
-0.07
-0.07
0.06
-0.07
-0.07
0.08
-0.08
-0.08
0.08
-0.08
-0.09
0.09
-0.09
-0.09
0.09
-0.1
-0.1
0.09
-0.1
0.09
-0.1
0.07
-0.1
0.07
-0.1
0.06
-0.1
0.04
-0.1
0.03
-0.1
0.01
-0.1
-0.01
-0.1
-0.02
-0.1
-0.04
-0.1
-0.06
-0.1
-0.08
-0.1
-0.1
-0.1
-0.1
-0.1
-0.1
-0.1
-0.1
-0.2
-0.2
-0.1
-0.2
-0.2
-0.1
-0.2
-0.2
-0.1
-0.2
-0.2
-0.1
-0.2
-0.2
-0.1
-0.2
-0.2
-0.1
-0.2
-0.1
-0.3
-0.1
-0.3
-0.1
-0.3
-0.1
-0.3
-0.2
-0.3
-0.2
-0.3
-0.2
-0.3
-0.2
-0.3
-0.2
-0.3
-0.2
-0.3
-0.2
-0.2
-0.3
-0.2
-0.2
-0.3
-0.2
-0.2
-0.3
-0.2
-0.2
-0.3
-0.2
-0.2
-0.3
-0.2
-0.2
-0.3
-0.2
-0.2
-0.3
-0.2
-0.3
-0.2
-0.3
-0.3
-0.3
-0.3
-0.3
-0.3
-0.3
-0.3
-0.3
-0.3
-0.3
-0.3
SCALARS strain_1 float
LOOKUP_TABLE default
-0.465794
-0.303890
0.286563
-1.189136
1.079030
-1.878365
1.887075
-2.538245
2.749052
-3.156581
3.621856
-3.762302
4.523680
-4.312460
5.459647
-4.843316
6.431113
-5.352938
7.434894
-5.818993
8.455618
-6.256277
9.505115
-6.666870
10.593271
-7.038710
11.691276
-7.394035
12.829138
-7.704164
13.981242
-7.979992
15.148408
-8.249137
16.356643
-8.498784
17.578114
-8.692219
18.815726
-8.868281
20.064829
-9.019685
21.344826
-9.148510
22.632627
-9.246129
23.936516
-9.326479
25.259416
-9.374590
26.592869
-9.409870
27.930655
-9.424074
29.280668
-9.431250
30.649127
-9.382610
32.015013
-9.347644
33.365258
-9.285126
34.734002
-9.196320
36.097429
37.477843
-9.104547
38.824446
-8.982408
40.189453
-8.852002
41.540006
-8.709597
42.882668
-8.565472
44.214979
-8.400153
45.536290
-8.219770
46.844878
-8.041097
48.124824
-7.832795
49.405041
-7.639343
50.657168
-7.423802
51.891919
-7.204750
53.101302
-6.979807
54.278481
55.439134
-6.747535
-6.512007
56.576287
-6.281064
57.672693
-6.034015
58.734654
-5.797999
59.763611
-5.553167
60.775634
-5.311534
61.726608
-5.076557
62.659101
-4.841443
63.545981
-4.596833
64.392806
-4.382084
65.177208
-4.119481
65.940151
-3.928205
66.680132
-3.692111
67.330586
-3.473000
67.958487
-3.274474
68.551686
-3.054459
69.062565
-2.864545
69.544627
-2.677529
-2.490320
69.977225
-2.318439
70.344678
-2.153163
70.669768
-1.988672
70.943050
-1.858947
71.169855
-1.711310
71.352191
-1.583536
71.473073
-1.461882
71.549384
-1.340888
71.554984
-1.245536
71.531797
-1.161566
71.429119
-1.074763
71.292199
-1.003727
71.094125
-0.970237
70.859492
-0.904997
70.562161
-0.869358
70.210104
-0.831728
69.813065
-0.823075
69.372678
-0.810212
68.882434
-0.808704
68.344603
-0.826787
67.745468
-0.846922
67.116821
-0.868422
66.447653
-0.910885
65.733370
-0.970179
64.971740
-1.034914
64.172844
-1.094852
63.331744
-1.155676
62.444721
-1.250630
61.538464
-1.343626
60.587542
-1.442034
59.604707
-1.547374
58.584692
-1.648190
57.554268
-1.759947
56.471305
-1.888272
55.389924
-2.012719
54.263453
-2.151645
53.114660
-2.282623
51.941557
-2.438162
50.757138
-2.583159
49.556604
-2.716909
48.332586
-2.871451
47.097607
-3.028265
45.865787
-3.190315
44.593993
-3.351543
43.340411
-3.497346
42.060192
-3.653382
40.786855
-3.812616
39.489234
-3.979477
38.209258
-4.145438
36.927736
-4.296162
35.637909
-4.455576
34.371121
-4.611286
33.100456
-4.767226
31.821863
-4.900244
30.560804
-5.062847
29.308203
-5.190878
28.063903
-5.330490
26.823949
-5.468297
25.619929
-5.601875
24.420294
-5.722463
23.224527
-5.829840
22.044542
-5.949915
20.907921
-6.051209
19.763817
-6.143769
18.634930
-6.238348
17.554783
-6.328638
16.470001
-6.398290
15.419733
-6.459776
14.387951
-6.514324
13.378672
-6.546349
12.392695
-6.582702
11.443082
-6.601445
10.497685
-6.619918
9.591638
-6.605913
8.715869
-6.592161
7.858410
-6.559383
7.023008
-6.506126
6.212813
-6.444863
5.432805
-6.383898
4.700433
-6.294172
3.956223
-6.182556
3.273627
-6.055863
2.606499
-5.918513
1.959944
-5.771726
1.324174
-5.574000
0.742152
-5.372954
0.178819
-5.171019
-0.348253
-4.909247
-0.858982
-4.679175
-1.360577
-4.383885
-1.825715
-4.094419
-2.252563
-3.777951
-2.680439
-3.426157
-3.075168
0.449208
-1.045968
1.253848
-1.742006
2.085747
-2.408118
2.930646
-3.047244
3.822334
-3.643053
4.744963
-4.217877
5.703172
-4.760392
6.691211
-5.264249
7.685281
-5.739728
8.724693
-6.194409
9.775000
-6.594977
10.872728
-6.980527
11.999045
-7.315181
13.126976
-7.646818
14.293269
-7.941146
15.486295
-8.196849
16.686908
-8.434331
17.917043
-8.654599
19.173778
-8.819719
20.420476
-8.983915
21.705441
-9.115577
22.998648
-9.213911
24.312532
-9.296256
25.630584
-9.354344
26.968782
-9.395782
28.298174
-9.402893
29.640114
-9.391827
30.993347
-9.363483
32.337104
-9.312745
33.716052
-9.251627
35.073635
-9.178945
36.424591
-9.077265
37.776109
-8.965315
39.124853
-8.842994
40.465563
-8.692402
41.793327
-8.546908
43.107610
-8.379691
44.413406
-8.186178
45.704094
-8.005454
46.979878
-7.827559
48.226191
-7.623984
49.466437
-7.403053
50.695837
-7.207062
51.878545
-6.987089
53.018229
-6.748799
54.170361
-6.529719
55.268891
-6.293006
56.341365
-6.057035
57.385526
-5.837623
58.398063
-5.597925
59.363536
-5.374136
60.296934
-5.130406
61.195266
-4.917921
62.031636
-4.681702
62.848247
-4.462907
63.604404
-4.225094
64.343396
-4.012025
65.008781
-3.796889
65.644947
-3.604779
66.223151
-3.406430
66.744464
-3.201201
67.245921
-3.037452
67.671590
-2.847869
68.060479
-2.686813
68.387622
-2.532721
68.660925
-2.391282
68.883623
-2.229698
69.070684
-2.095755
69.175781
-1.978633
69.262847
-1.869739
69.275671
-1.758497
69.215662
-1.665222
69.143433
-1.597294
68.989486
-1.517155
68.798076
-1.457592
68.541554
-1.391058
68.248821
-1.360461
67.885008
-1.327510
67.492680
-1.306689
67.037716
-1.302054
66.534481
-1.295113
65.980827
-1.299715
65.398688
-1.319562
64.769084
-1.345435
64.078784
-1.374702
63.338362
-1.428906
62.573257
-1.491967
61.757058
-1.539533
60.915709
-1.621699
60.024757
-1.689453
59.115379
-1.775296
58.168854
-1.870745
57.154624
-1.974879
56.147817
-2.071120
55.087011
-2.198116
54.013008
-2.314147
52.910394
-2.448322
51.797291
-2.563334
50.648386
-2.703418
49.469231
-2.840054
48.288092
-2.987448
47.078579
-3.123174
45.853071
-3.268755
44.628008
-3.413513
43.383941
-3.565770
42.130575
-3.714359
40.865813
-3.881996
39.608753
-4.026264
38.334547
-4.179186
37.064901
-4.336621
35.785973
-4.492292
34.500275
-4.645460
33.241470
-4.791567
31.981788
-4.950161
30.717178
-5.089782
29.481154
-5.216819
28.222274
-5.377209
27.000453
-5.496276
25.783764
-5.616999
24.582305
-5.750410
23.370032
-5.863579
22.199267
-5.964820
21.052168
-6.087619
19.903536
-6.186091
18.787287
-6.271011
17.665783
-6.358528
16.591832
-6.433761
15.531120
-6.477197
14.486901
-6.549905
13.477200
-6.587195
12.482589
-6.620096
11.519384
-6.652769
10.583404
-6.647159
9.660971
-6.653332
8.769602
-6.640765
7.896597
-6.591427
7.057310
-6.561244
6.247807
-6.500401
5.462074
-6.419680
4.717550
-6.340789
3.975147
-6.251310
3.266470
-6.115472
2.599425
-5.962812
1.947515
-5.804473
1.322424
-5.643113
0.731099
-5.447261
0.158639
-5.231072
-0.377650
-4.978674
-0.900106
-4.740249
-1.406682
-4.459279
-1.860627
-4.157227
-2.312505
-3.828745
-3.489682
-2.732299
-3.123668
0.145564
-0.754128
0.788020
-1.476656
1.573985
-2.153916
2.398921
-2.786057
3.280244
-3.420177
4.170368
-3.974031
5.054913
5.805812
-4.589866
6.769944
6.287284
-5.065268
7.790374
7.320965
-5.554297
8.331790
8.849536
-5.989931
9.391898
9.929882
-6.340630
11.018642
10.445717
-6.819050
11.561480
12.146547
-7.186658
13.352084
12.686013
-7.523201
14.201258
-7.821964
15.332191
-8.103012
16.521538
-8.399478
17.746345
-8.574401
18.988802
-8.759690
20.239771
-8.934192
21.474820
-9.053974
22.553136
-9.190955
24.134807
-9.283492
25.443817
-9.340444
-9.369492
26.772180
-9.411366
-9.395867
28.129062
-9.421923
-9.402399
29.460118
-9.405148
-9.407867
-9.388017
-9.368811
31.118832
-9.345086
-9.318800
32.368928
-9.283809
-9.245971
33.736146
-9.216823
-9.161044
35.150243
-9.087675
36.929477
-8.964837
39.240981
-8.850452
40.326641
-8.707746
41.391051
-8.554369
42.997391
-8.400671
44.314169
-8.243953
45.620335
-8.020901
47.152806
-7.825123
48.218228
-7.626504
49.429791
-7.368954
50.661551
-7.201831
51.877390
-7.022565
53.063558
54.177349
55.075081
-6.605511
56.158086
55.632043
-6.327166
57.311548
56.738217
-6.076049
57.794115
58.343388
-5.833482
58.823860
59.344202
-5.627384
59.804118
60.304297
-5.343153
60.745854
61.261237
-5.113138
61.658959
62.246979
-4.876539
62.828437
-4.637889
63.613005
-4.422164
64.382958
-4.141253
65.126205
-3.958228
65.811602
-3.755500
66.473718
-3.540059
67.056877
-3.329651
67.520667
-3.154443
68.141856
-2.953291
68.597975
-2.782989
-2.638135
69.005339
-2.551366
-2.465491
69.364292
-2.391205
-2.307382
69.669041
-2.219300
-2.140424
69.974681
-2.088098
-2.005744
70.115157
-1.866224
-1.949535
70.256048
-1.821061
-1.752467
70.371876
-1.631692
-1.694065
70.406500
-1.560410
70.395438
-1.456049
70.326557
-1.386009
70.195374
-1.300743
70.042736
-1.238241
69.813668
-1.187937
69.542659
-1.147627
69.151952
-1.101751
68.828706
-1.084122
68.428809
-1.063068
67.938889
-1.055916
67.431035
-1.052333
66.881354
-1.077635
66.293018
65.880904
-1.113905
65.405535
65.089330
-1.130487
64.674019
64.344909
-1.171759
63.607160
63.936219
-1.221917
63.167164
62.759703
-1.266514
61.945511
62.351385
-1.350261
61.428833
61.008726
-1.434917
60.055116
60.512707
-1.507117
59.330728
-1.612325
58.392665
-1.711504
57.355514
-1.840444
56.316502
-1.925354
55.243854
-2.045507
54.142344
-2.156414
53.044707
-2.284928
52.098948
-2.428649
50.700660
-2.569181
49.503910
-2.704615
-2.800145
48.302252
-2.888404
-2.947763
47.074862
-3.044599
-3.118492
45.862739
-3.195611
-3.261122
44.350091
-3.343953
-3.413063
43.325459
-3.495206
-3.570330
42.091535
-3.645102
-3.739737
40.831413
-3.808627
-3.886316
39.590164
-4.007022
38.562097
-4.167302
36.726110
-4.321347
35.710135
-4.477964
34.703922
-4.633909
33.171113
-4.774421
31.901959
-4.892163
30.641560
-5.083904
29.112379
-5.224394
28.096898
-5.342307
26.900291
-5.512319
25.689357
-5.610496
24.493244
-5.700034
23.309191
-5.878900
22.199296
-5.938062
21.352246
20.686778
-6.098065
20.167313
19.531000
-6.174449
18.980964
18.431695
-6.248454
17.880728
17.355535
-6.322881
16.803300
16.293608
-6.410992
15.693386
15.195834
-6.484233
14.675822
14.201203
-6.535676
13.626099
-6.561928
12.887536
-6.606223
11.944740
-6.623639
10.999589
-6.627843
10.078686
-6.629597
9.189566
-6.603549
8.320856
-6.574770
7.494245
-6.533156
6.803706
-6.471385
5.847938
-6.399607
5.080074
-6.337173
-6.288826
4.332092
-6.239358
-6.185104
3.610662
-6.119785
-6.053705
2.932752
-5.966474
-5.903000
2.135891
-5.749645
-5.836385