# vtk DataFile Version 2.0
Generated volume Mesh
ASCII
DATASET UNSTRUCTURED_GRID
POINTS 994 float
-0.416146 -0.294827 0.000000
-0.409251 -0.287252 0.000000
-0.421925 -0.286495 0.000000
-0.410201 -0.303043 0.000000
-0.427538 -0.278049 0.000000
-0.404095 -0.311138 0.000000
-0.432982 -0.269494 0.000000
-0.397829 -0.319111 0.000000
-0.438254 -0.260832 0.000000
-0.391406 -0.326958 0.000000
-0.443353 -0.252067 0.000000
-0.384828 -0.334675 0.000000
-0.448277 -0.243202 0.000000
-0.378098 -0.342260 0.000000
-0.453024 -0.234242 0.000000
-0.371218 -0.349710 0.000000
-0.457592 -0.225188 0.000000
-0.364192 -0.357021 0.000000
-0.461979 -0.216046 0.000000
-0.357021 -0.364192 0.000000
-0.466183 -0.206818 0.000000
-0.349710 -0.371218 0.000000
-0.470203 -0.197508 0.000000
-0.342260 -0.378098 0.000000
-0.474037 -0.188120 0.000000
-0.334675 -0.384828 0.000000
-0.477683 -0.178658 0.000000
-0.326958 -0.391406 0.000000
-0.481141 -0.169126 0.000000
-0.319111 -0.397829 0.000000
-0.484408 -0.159526 0.000000
-0.311138 -0.404095 0.000000
-0.487484 -0.149864 0.000000
-0.303043 -0.410201 0.000000
-0.490368 -0.140141 0.000000
-0.294827 -0.416146 0.000000
-0.493057 -0.130363 0.000000
-0.286495 -0.421925 0.000000
-0.495552 -0.120532 0.000000
-0.278049 -0.427538 0.000000
-0.497851 -0.110654 0.000000
-0.269494 -0.432982 0.000000
-0.499953 -0.100732 0.000000
-0.260832 -0.438254 0.000000
-0.501857 -0.090771 0.000000
-0.252067 -0.443353 0.000000
-0.503563 -0.080774 0.000000
-0.243202 -0.448277 0.000000
-0.505069 -0.070746 0.000000
-0.234242 -0.453024 0.000000
-0.506376 -0.060691 0.000000
-0.225188 -0.457592 0.000000
-0.507482 -0.050612 0.000000
-0.216046 -0.461979 0.000000
-0.508388 -0.040514 0.000000
-0.206818 -0.466183 0.000000
-0.509093 -0.030400 0.000000
-0.197508 -0.470203 0.000000
-0.509597 -0.020274 0.000000
-0.188120 -0.474037 0.000000
-0.509899 -0.010139 0.000000
-0.178658 -0.477683 0.000000
-0.510000 0.000000 0.000000
-0.169126 -0.481141 0.000000
-0.509899 0.010139 0.000000
-0.509597 0.020274 0.000000
-0.159526 -0.484408 0.000000
-0.509093 0.030400 0.000000
-0.149864 -0.487484 0.000000
-0.508388 0.040514 0.000000
-0.140141 -0.490368 0.000000
-0.507482 0.050612 0.000000
-0.130363 -0.493057 0.000000
-0.506376 0.060691 0.000000
-0.120532 -0.495552 0.000000
-0.505069 0.070746 0.000000
-0.110654 -0.497851 0.000000
-0.503563 0.080774 0.000000
-0.100732 -0.499953 0.000000
-0.501857 0.090771 0.000000
-0.090771 -0.501857 0.000000
-0.499953 0.100732 0.000000
-0.080774 -0.503563 0.000000
-0.497851 0.110654 0.000000
-0.070746 -0.505069 0.000000
-0.495552 0.120532 0.000000
-0.060691 -0.506376 0.000000
-0.493057 0.130363 0.000000
-0.050612 -0.507482 0.000000
-0.490368 0.140141 0.000000
-0.040514 -0.508388 0.000000
-0.487484 0.149864 0.000000
-0.484408 0.159526 0.000000
-0.030400 -0.509093 0.000000
-0.020274 -0.509597 0.000000
-0.481141 0.169126 0.000000
-0.010139 -0.509899 0.000000
-0.477683 0.178658 0.000000
0.000000 -0.510000 0.000000
-0.474037 0.188120 0.000000
0.010139 -0.509899 0.000000
-0.470203 0.197508 0.000000
0.020274 -0.509597 0.000000
-0.466183 0.206818 0.000000
0.030400 -0.509093 0.000000
-0.461979 0.216046 0.000000
0.040514 -0.508388 0.000000
-0.457592 0.225188 0.000000
0.050612 -0.507482 0.000000
-0.453024 0.234242 0.000000
0.060691 -0.506376 0.000000
-0.448277 0.243202 0.000000
0.070746 -0.505069 0.000000
-0.443353 0.252067 0.000000
0.080774 -0.503563 0.000000
-0.438254 0.260832 0.000000
0.090771 -0.501857 0.000000
-0.432982 0.269494 0.000000
0.100732 -0.499953 0.000000
-0.427538 0.278049 0.000000
0.110654 -0.497851 0.000000
-0.421925 0.286495 0.000000
0.120532 -0.495552 0.000000
-0.416146 0.294827 0.000000
0.130363 -0.493057 0.000000
-0.410201 0.303043 0.000000
0.140141 -0.490368 0.000000
-0.404095 0.311138 0.000000
0.149864 -0.487484 0.000000
0.159526 -0.484408 0.000000
-0.397829 0.319111 0.000000
0.169126 -0.481141 0.000000
-0.391406 0.326958 0.000000
0.178658 -0.477683 0.000000
-0.384828 0.334675 0.000000
0.188120 -0.474037 0.000000
-0.378098 0.342260 0.000000
0.197508 -0.470203 0.000000
-0.371218 0.349710 0.000000
0.206818 -0.466183 0.000000
-0.364192 0.357021 0.000000
0.216046 -0.461979 0.000000
-0.357021 0.364192 0.000000
0.225188 -0.457592 0.000000
-0.349710 0.371218 0.000000
0.234242 -0.453024 0.000000
-0.342260 0.378098 0.000000
0.243202 -0.448277 0.000000
-0.334675 0.384828 0.000000
0.252067 -0.443353 0.000000
-0.326958 0.391406 0.000000
0.260832 -0.438254 0.000000
-0.319111 0.397829 0.000000
0.269494 -0.432982 0.000000
-0.311138 0.404095 0.000000
0.278049 -0.427538 0.000000
-0.303043 0.410201 0.000000
0.286495 -0.421925 0.000000
-0.294827 0.416146 0.000000
0.294827 -0.416146 0.000000
-0.286495 0.421925 0.000000
0.303043 -0.410201 0.000000
-0.278049 0.427538 0.000000
0.311138 -0.404095 0.000000
-0.269494 0.432982 0.000000
0.319111 -0.397829 0.000000
-0.260832 0.438254 0.000000
0.326958 -0.391406 0.000000
-0.252067 0.443353 0.000000
0.334675 -0.384828 0.000000
-0.243202 0.448277 0.000000
0.342260 -0.378098 0.000000
-0.234242 0.453024 0.000000
0.349710 -0.371218 0.000000
-0.225188 0.457592 0.000000
0.357021 -0.364192 0.000000
-0.216046 0.461979 0.000000
0.364192 -0.357021 0.000000
-0.206818 0.466183 0.000000
0.371218 -0.349710 0.000000
-0.197508 0.470203 0.000000
0.378098 -0.342260 0.000000
-0.188120 0.474037 0.000000
0.384828 -0.334675 0.000000
-0.178658 0.477683 0.000000
0.391406 -0.326958 0.000000
-0.169126 0.481141 0.000000
0.397829 -0.319111 0.000000
-0.159526 0.484408 0.000000
0.404095 -0.311138 0.000000
-0.149864 0.487484 0.000000
0.410201 -0.303043 0.000000
-0.140141 0.490368 0.000000
0.416146 -0.294827 0.000000
-0.130363 0.493057 0.000000
0.421925 -0.286495 0.000000
-0.120532 0.495552 0.000000
0.427538 -0.278049 0.000000
-0.110654 0.497851 0.000000
0.432982 -0.269494 0.000000
-0.100732 0.499953 0.000000
0.438254 -0.260832 0.000000
-0.090771 0.501857 0.000000
0.443353 -0.252067 0.000000
-0.080774 0.503563 0.000000
0.448277 -0.243202 0.000000
-0.070746 0.505069 0.000000
0.453024 -0.234242 0.000000
-0.060691 0.506376 0.000000
0.457592 -0.225188 0.000000
-0.050612 0.507482 0.000000
0.461979 -0.216046 0.000000
-0.040514 0.508388 0.000000
0.466183 -0.206818 0.000000
-0.030400 0.509093 0.000000
0.470203 -0.197508 0.000000
-0.020274 0.509597 0.000000
0.474037 -0.188120 0.000000
-0.010139 0.509899 0.000000
0.477683 -0.178658 0.000000
0.000000 0.510000 0.000000
0.481141 -0.169126 0.000000
0.010139 0.509899 0.000000
0.484408 -0.159526 0.000000
0.020274 0.509597 0.000000
0.487484 -0.149864 0.000000
0.030400 0.509093 0.000000
0.490368 -0.140141 0.000000
0.040514 0.508388 0.000000
0.493057 -0.130363 0.000000
0.050612 0.507482 0.000000
0.495552 -0.120532 0.000000
0.060691 0.506376 0.000000
0.497851 -0.110654 0.000000
0.070746 0.505069 0.000000
0.499953 -0.100732 0.000000
0.080774 0.503563 0.000000
0.501857 -0.090771 0.000000
0.090771 0.501857 0.000000
0.503563 -0.080774 0.000000
0.100732 0.499953 0.000000
0.505069 -0.070746 0.000000
0.110654 0.497851 0.000000
0.506376 -0.060691 0.000000
0.120532 0.495552 0.000000
0.507482 -0.050612 0.000000
0.130363 0.493057 0.000000
0.508388 -0.040514 0.000000
0.140141 0.490368 0.000000
0.509093 -0.030400 0.000000
0.149864 0.487484 0.000000
0.509597 -0.020274 0.000000
0.159526 0.484408 0.000000
0.509899 -0.010139 0.000000
0.169126 0.481141 0.000000
0.510000 0.000000 0.000000
0.178658 0.477683 0.000000
0.509899 0.010139 0.000000
0.188120 0.474037 0.000000
0.509597 0.020274 0.000000
0.197508 0.470203 0.000000
0.509093 0.030400 0.000000
0.206818 0.466183 0.000000
0.508388 0.040514 0.000000
0.216046 0.461979 0.000000
0.507482 0.050612 0.000000
0.225188 0.457592 0.000000
0.506376 0.060691 0.000000
0.234242 0.453024 0.000000
0.505069 0.070746 0.000000
0.243202 0.448277 0.000000
0.503563 0.080774 0.000000
0.252067 0.443353 0.000000
0.501857 0.090771 0.000000
0.260832 0.438254 0.000000
0.499953 0.100732 0.000000
0.269494 0.432982 0.000000
0.497851 0.110654 0.000000
0.278049 0.427538 0.000000
0.495552 0.120532 0.000000
0.286495 0.421925 0.000000
0.493057 0.130363 0.000000
0.294827 0.416146 0.000000
0.490368 0.140141 0.000000
0.303043 0.410201 0.000000
0.487484 0.149864 0.000000
0.311138 0.404095 0.000000
0.484408 0.159526 0.000000
0.319111 0.397829 0.000000
0.481141 0.169126 0.000000
0.326958 0.391406 0.000000
0.477683 0.178658 0.000000
0.334675 0.384828 0.000000
0.474037 0.188120 0.000000
0.342260 0.378098 0.000000
0.470203 0.197508 0.000000
0.349710 0.371218 0.000000
0.466183 0.206818 0.000000
0.357021 0.364192 0.000000
0.461979 0.216046 0.000000
0.364192 0.357021 0.000000
0.457592 0.225188 0.000000
0.371218 0.349710 0.000000
0.453024 0.234242 0.000000
0.378098 0.342260 0.000000
0.448277 0.243202 0.000000
0.384828 0.334675 0.000000
0.443353 0.252067 0.000000
0.391406 0.326958 0.000000
0.438254 0.260832 0.000000
0.397829 0.319111 0.000000
0.432982 0.269494 0.000000
0.404095 0.311138 0.000000
0.427538 0.278049 0.000000
0.410201 0.303043 0.000000
0.421925 0.286495 0.000000
0.416146 0.294827 0.000000
-0.415025 -0.278844 0.000000
-0.403306 -0.295541 0.000000
-0.420627 -0.270320 0.000000
-0.397194 -0.303706 0.000000
-0.426054 -0.261684 0.000000
-0.390916 -0.311745 0.000000
-0.431303 -0.252938 0.000000
-0.384475 -0.319654 0.000000
-0.436373 -0.244088 0.000000
-0.377875 -0.327430 0.000000
-0.441261 -0.235136 0.000000
-0.371117 -0.335070 0.000000
-0.445965 -0.226086 0.000000
-0.364205 -0.342571 0.000000
-0.450484 -0.216942 0.000000
-0.357141 -0.349929 0.000000
-0.454816 -0.207707 0.000000
-0.349929 -0.357141 0.000000
-0.458958 -0.198386 0.000000
-0.342571 -0.364205 0.000000
-0.462910 -0.188983 0.000000
-0.335070 -0.371117 0.000000
-0.466668 -0.179501 0.000000
-0.327430 -0.377875 0.000000
-0.470233 -0.169944 0.000000
-0.319654 -0.384475 0.000000
-0.473602 -0.160317 0.000000
-0.311745 -0.390916 0.000000
-0.476773 -0.150623 0.000000
-0.303706 -0.397194 0.000000
-0.479747 -0.140866 0.000000
-0.295541 -0.403306 0.000000
-0.482520 -0.131050 0.000000
-0.287252 -0.409251 0.000000
-0.485094 -0.121178 0.000000
[...]
POINT_DATA 994
SCALARS u1 float
LOOKUP_TABLE default
-0.1
-0.2
-0.2
-0.1
-0.2
-0.1
-0.2
-0.09
-0.2
-0.08
-0.2
-0.07
-0.2
-0.06
-0.3
-0.06
-0.3
-0.05
-0.3
-0.05
-0.4
-0.05
-0.4
-0.05
-0.4
-0.05
-0.5
-0.06
-0.5
-0.06
-0.5
-0.07
-0.6
-0.07
-0.6
-0.08
-0.7
-0.08
-0.7
-0.09
-0.8
-0.09
-0.8
-0.1
-0.8
-0.1
-0.9
-0.1
-0.9
-0.1
-0.9
-0.1
-1
-0.1
-1
-0.2
-1
-0.2
-1
-0.2
-1
-0.2
-1
-0.2
-1
-1
-0.2
-1
-0.2
-1
-0.2
-1
-0.2
-1
-0.3
-0.9
-0.3
-0.9
-0.3
-0.9
-0.3
-0.9
-0.3
-0.8
-0.3
-0.8
-0.3
-0.8
-0.3
-0.7
-0.3
-0.7
-0.7
-0.3
-0.3
-0.6
-0.3
-0.6
-0.3
-0.6
-0.3
-0.5
-0.3
-0.5
-0.2
-0.5
-0.2
-0.5
-0.2
-0.4
-0.2
-0.4
-0.2
-0.4
-0.3
-0.4
-0.3
-0.4
-0.3
-0.4
-0.3
-0.4
-0.3
-0.4
-0.3
-0.3
-0.3
-0.3
-0.3
-0.3
-0.3
-0.3
-0.3
-0.4
-0.3
-0.4
-0.3
-0.4
-0.3
-0.4
-0.3
-0.4
-0.3
-0.4
-0.3
-0.4
-0.3
-0.5
-0.3
-0.5
-0.3
-0.5
-0.4
-0.5
-0.4
-0.5
-0.4
-0.5
-0.4
-0.5
-0.4
-0.5
-0.4
-0.5
-0.4
-0.5
-0.4
-0.6
-0.4
-0.6
-0.5
-0.6
-0.5
-0.6
-0.5
-0.6
-0.5
-0.6
-0.5
-0.6
-0.5
-0.6
-0.5
-0.6
-0.6
-0.6
-0.6
-0.6
-0.6
-0.6
-0.6
-0.6
-0.6
-0.5
-0.6
-0.5
-0.6
-0.5
-0.6
-0.5
-0.6
-0.5
-0.7
-0.5
-0.7
-0.5
-0.7
-0.5
-0.7
-0.4
-0.7
-0.4
-0.7
-0.4
-0.7
-0.4
-0.7
-0.3
-0.7
-0.3
-0.7
-0.3
-0.6
-0.2
-0.6
-0.2
-0.6
-0.2
-0.6
-0.1
-0.6
-0.09
-0.6
-0.06
-0.6
-0.02
-0.6
0.01
-0.6
0.04
-0.7
0.07
-0.7
0.09
-0.7
0.1
-0.7
0.1
-0.7
0.2
-0.7
0.2
-0.7
0.2
-0.7
0.2
-0.7
0.2
-0.7
0.1
-0.7
0.1
-0.8
0.1
-0.8
0.08
-0.8
0.05
-0.8
0.01
-0.8
-0.03
-0.8
-0.06
-0.8
-0.1
-0.8
-0.1
-0.8
-0.2
-0.8
-0.2
-0.8
-0.3
-0.9
-0.3
-0.9
-0.4
-0.9
-0.4
-0.9
-0.4
-0.9
-0.5
-0.9
-0.5
-0.9
-0.6
-0.9
-0.6
-0.9
-0.6
-0.9
-0.6
-0.9
-0.7
-0.9
-0.7
-0.8
-0.7
-0.8
-0.7
-0.8
-0.8
-0.8
-0.8
-0.8
-0.2
-0.1
-0.2
-0.1
-0.2
-0.1
-0.2
-0.09
-0.2
-0.08
-0.3
-0.07
-0.3
-0.06
-0.3
-0.06
-0.4
-0.05
-0.4
-0.05
-0.4
-0.05
-0.5
-0.05
-0.5
-0.05
-0.5
-0.06
-0.6
-0.06
-0.6
-0.06
-0.7
-0.07
-0.7
-0.07
-0.8
-0.08
-0.8
-0.08
-0.8
-0.09
-0.9
-0.1
-0.9
-0.1
-0.9
-0.1
-1
-0.1
-1
-0.1
-1
-0.1
-1
-0.1
-1
-0.2
-1
-0.2
-1
-0.2
-1
-0.2
-1
-0.2
-1
-0.2
-1
-0.2
-1
-0.2
-0.9
-0.2
-0.9
-0.2
-0.9
-0.2
-0.9
-0.2
-0.8
-0.2
-0.8
-0.3
-0.8
-0.3
-0.7
-0.3
-0.7
-0.3
-0.7
-0.3
-0.6
-0.3
-0.6
-0.3
-0.6
-0.3
-0.5
-0.3
-0.5
-0.3
-0.5
-0.3
-0.5
-0.3
-0.4
-0.3
-0.4
-0.3
-0.4
-0.3
-0.4
-0.3
-0.4
-0.3
-0.4
-0.3
-0.4
-0.3
-0.4
-0.3
-0.3
-0.4
-0.3
-0.4
-0.3
-0.4
-0.3
-0.4
-0.3
-0.4
-0.3
-0.4
-0.3
-0.4
-0.3
-0.4
-0.3
-0.5
-0.3
-0.5
-0.3
-0.5
-0.3
-0.5
-0.3
-0.5
-0.4
-0.5
-0.4
-0.5
-0.4
-0.5
-0.4
-0.5
-0.4
-0.5
-0.4
-0.6
-0.4
-0.6
-0.4
-0.6
-0.4
-0.6
-0.4
-0.6
-0.5
-0.6
-0.5
-0.6
-0.5
-0.6
-0.5
-0.6
-0.5
-0.6
-0.5
-0.6
-0.5
-0.6
-0.6
-0.6
-0.6
-0.6
-0.6
-0.5
-0.6
-0.5
-0.6
-0.5
-0.6
-0.5
-0.6
-0.5
-0.6
-0.5
-0.6
-0.5
-0.6
-0.4
-0.6
-0.4
-0.6
-0.4
-0.6
-0.4
-0.6
-0.3
-0.6
-0.3
-0.6
-0.3
-0.7
-0.2
-0.7
-0.2
-0.7
-0.2
-0.7
-0.1
-0.7
-0.09
-0.7
-0.06
-0.7
-0.02
-0.7
0.008
-0.7
0.04
-0.7
0.07
-0.7
0.09
-0.7
0.1
-0.7
0.1
-0.7
0.2
-0.7
0.2
-0.7
0.2
-0.8
0.2
-0.8
0.2
-0.8
0.1
-0.8
0.1
-0.8
0.1
-0.8
0.08
-0.8
0.04
-0.8
0.01
-0.8
-0.03
-0.8
-0.07
-0.8
-0.1
-0.8
-0.2
-0.9
-0.2
-0.9
-0.2
-0.9
-0.3
-0.9
-0.3
-0.9
-0.4
-0.9
-0.4
-0.9
-0.5
-0.9
-0.5
-0.9
-0.5
-0.9
-0.6
-0.9
-0.6
-0.9
-0.6
-0.9
-0.7
-0.8
-0.7
-0.8
-0.7
-0.8
-0.7
-0.8
-0.7
-0.8
-0.8
-0.8
-0.2
-0.1
-0.2
-0.1
-0.2
-0.1
-0.2
-0.09
-0.2
-0.08
-0.2
-0.07
-0.3
-0.3
-0.06
-0.3
-0.3
-0.06
-0.3
-0.3
-0.05
-0.4
-0.4
-0.05
-0.4
-0.4
-0.05
-0.5
-0.4
-0.05
-0.5
-0.5
-0.05
-0.5
-0.5
-0.06
-0.6
-0.06
-0.6
-0.07
-0.6
-0.07
-0.7
-0.08
-0.7
-0.08
-0.8
-0.09
-0.8
-0.09
-0.8
-0.1
-0.9
-0.1
-0.9
-0.1
-0.1
-1
-0.1
-0.1
-1
-0.1
-0.1
-1
-0.2
-0.1
-0.2
-0.2
-1
-0.2
-0.2
-1
-0.2
-0.2
-1
-0.2
-0.2
-1
-0.2
-1
-0.2
-1
-0.2
-1
-0.2
-1
-0.2
-1
-0.2
-0.9
-0.2
-0.9
-0.3
-0.9
-0.3
-0.8
-0.3
-0.8
-0.3
-0.8
-0.3
-0.7
-0.3
-0.7
-0.7
-0.6
-0.3
-0.6
-0.6
-0.3
-0.6
-0.6
-0.3
-0.6
-0.6
-0.3
-0.5
-0.5
-0.3
-0.5
-0.5
-0.3
-0.5
-0.5
-0.3
-0.5
-0.5
-0.3
-0.4
-0.3
-0.4
-0.3
-0.4
-0.3
-0.4
-0.3
-0.4
-0.3
-0.4
-0.3
-0.4
-0.3
-0.4
-0.3
-0.3
-0.3
-0.3
-0.3
-0.3
-0.3
-0.4
-0.4
-0.3
-0.4
-0.4
-0.3
-0.4
-0.4
-0.3
-0.4
-0.4
-0.3
-0.4
-0.4
-0.3
-0.4
-0.4
-0.3
-0.4
-0.4
-0.3
-0.5
-0.3
-0.5
-0.3
-0.5
-0.3
-0.5
-0.4
-0.5
-0.4
-0.5
-0.4
-0.5
-0.4
-0.5
-0.4
-0.5
-0.4
-0.5
-0.4
-0.6
-0.4
-0.6
-0.4
-0.6
-0.5
-0.5
-0.6
-0.5
-0.5
-0.6
-0.5
-0.5
-0.6
-0.5
-0.5
-0.6
-0.5
-0.5
-0.6
-0.5
-0.5
-0.6
-0.5
-0.5
-0.6
-0.6
-0.6
-0.6
-0.6
-0.6
-0.6
-0.6
-0.6
-0.5
-0.6
-0.5
-0.6
-0.5
-0.6
-0.5
-0.6
-0.5
-0.6
-0.5
-0.6
-0.5
-0.6
-0.5
-0.4
-0.6
-0.4
-0.4
-0.7
-0.4
-0.4
-0.7
-0.4
-0.4
-0.7
-0.4
-0.3
-0.7
-0.3
-0.3
-0.7
-0.3
-0.3
-0.7
-0.3
-0.2
-0.6
-0.2
-0.6
-0.2
-0.6
-0.1
-0.6
-0.1
-0.7
-0.08
-0.7
-0.04
-0.7
-0.01
-0.7
0.02
-0.7
0.05
-0.7
0.08
-0.7
0.1
-0.7
0.1
-0.7
0.1
-0.7
0.2
-0.7
0.2
-0.7
-0.7
0.2
-0.7
-0.7
0.2
-0.7
-0.8
0.2
-0.8
-0.8
0.1
-0.8
-0.8
0.1
-0.8
-0.8
0.09
-0.8
-0.8
0.06
-0.8
0.03
-0.8
-0.008
-0.8
-0.05
-0.8
-0.09
-0.8
-0.1
-0.8
-0.2
-0.8
-0.2
-0.8
-0.3
-0.9
-0.3
-0.9
-0.3
-0.9
-0.4
-0.4
-0.9
-0.4
-0.4
-0.9
-0.5
-0.5
-0.9
-0.5
-0.5
-0.9
-0.6
-0.5
-0.9
-0.6
-0.6
-0.9
-0.6
-0.6
-0.9
-0.6
-0.9
-0.7
-0.9
-0.7
-0.8
-0.7
-0.8
-0.7
-0.8
-0.7
-0.8
-0.8
-0.8
-0.8
SCALARS u2 float
LOOKUP_TABLE default
-0.4
-0.4
-0.4
-0.4
-0.4
-0.4
-0.4
-0.4
-0.4
-0.3
-0.4
-0.3
-0.5
-0.3
-0.5
-0.3
-0.5
-0.3
-0.5
-0.3
-0.5
-0.3
-0.5
-0.3
-0.5
-0.3
-0.6
-0.3
-0.6
-0.3
-0.6
-0.3
-0.6
-0.3
-0.6
-0.4
-0.6
-0.4
-0.6
-0.4
-0.6
-0.4
-0.6
-0.4
-0.6
-0.4
-0.7
-0.4
-0.7
-0.4
-0.7
-0.5
-0.7
-0.5
-0.7
-0.5
-0.7
-0.5
-0.7
-0.6
-0.6
-0.6
-0.6
-0.6
-0.6
-0.6
-0.6
-0.6
-0.7
-0.6
-0.7
-0.6
-0.8
-0.6
-0.8
-0.6
-0.8
-0.6
-0.9
-0.6
-0.9
-0.6
-0.9
-0.6
-0.9
-0.7
-1
-0.7
-1
-0.7
-1
-0.7
-0.7
-1
-1
-0.7
-1
-0.7
-1
-0.7
-1
-0.7
-1
-0.7
-1
-0.8
-1
-0.8
-0.9
-0.8
-0.9
-0.8
-0.9
-0.8
-0.9
-0.8
-0.8
-0.8
-0.8
-0.8
-0.7
-0.8
-0.7
-0.8
-0.6
-0.8
-0.6
-0.8
-0.6
-0.5
-0.8
-0.5
-0.9
-0.4
-0.9
-0.4
-0.9
-0.4
-0.9
-0.3
-0.9
-0.3
-0.9
-0.3
-0.9
-0.2
-0.8
-0.2
-0.8
-0.2
-0.8
-0.2
-0.8
-0.2
-0.8
-0.1
-0.8
-0.1
-0.8
-0.1
-0.8
-0.1
-0.7
-0.08
-0.7
-0.07
-0.7
-0.06
-0.7
-0.05
-0.7
-0.04
-0.6
-0.03
-0.6
-0.03
-0.6
-0.03
-0.5
-0.03
-0.5
-0.03
-0.5
-0.03
-0.4
-0.04
-0.4
-0.04
-0.4
-0.05
-0.3
-0.05
-0.3
-0.06
-0.2
-0.06
-0.2
-0.07
-0.1
-0.08
-0.1
-0.08
-0.06
-0.09
-0.02
-0.1
0.02
-0.1
0.05
-0.1
0.08
-0.1
0.1
-0.1
0.1
-0.2
0.1
-0.2
0.2
-0.2
0.2
-0.2
0.2
-0.2
0.2
-0.2
0.1
-0.2
0.1
-0.2
0.1
-0.2
0.09
-0.2
0.06
-0.3
0.04
-0.3
0.005
-0.3
-0.03
-0.3
-0.06
-0.3
-0.1
-0.3
-0.1
-0.3
-0.2
-0.3
-0.2
-0.3
-0.2
-0.3
-0.3
-0.3
-0.3
-0.2
-0.3
-0.2
-0.4
-0.2
-0.4
-0.2
-0.4
-0.2
-0.4
-0.2
-0.5
-0.2
-0.5
-0.2
-0.5
-0.3
-0.5
-0.3
-0.5
-0.3
-0.5
-0.3
-0.5
-0.3
-0.6
-0.3
-0.6
-0.3
-0.6
-0.3
-0.6
-0.3
-0.6
-0.3
-0.6
-0.4
-0.6
-0.4
-0.6
-0.4
-0.6
-0.4
-0.6
-0.4
-0.6
-0.4
-0.6
-0.5
-0.6
-0.5
-0.6
-0.5
-0.6
-0.5
-0.5
-0.5
-0.5
-0.5
-0.5
-0.4
-0.4
-0.4
-0.4
-0.4
-0.3
-0.4
-0.3
-0.4
-0.3
-0.4
-0.3
-0.4
-0.3
-0.5
-0.3
-0.5
-0.3
-0.5
-0.3
-0.5
-0.3
-0.5
-0.3
-0.5
-0.3
-0.5
-0.3
-0.5
-0.3
-0.6
-0.4
-0.6
-0.4
-0.6
-0.4
-0.6
-0.4
-0.6
-0.4
-0.6
-0.4
-0.6
-0.4
-0.6
-0.4
-0.6
-0.5
-0.6
-0.5
-0.6
-0.5
-0.6
-0.5
-0.6
-0.6
-0.6
-0.6
-0.6
-0.6
-0.6
-0.6
-0.6
-0.7
-0.6
-0.7
-0.6
-0.7
-0.7
-0.8
-0.7
-0.8
-0.7
-0.9
-0.7
-0.9
-0.7
-0.9
-0.7
-0.9
-0.7
-1
-0.7
-1
-0.7
-1
-0.7
-1
-0.7
-1
-0.7
-1
-0.7
-1
-0.7
-1
-0.8
-1
-0.8
-1
-0.8
-1
-0.8
-0.9
-0.8
-0.9
-0.8
-0.9
-0.8
-0.8
-0.8
-0.8
-0.8
-0.8
-0.8
-0.7
-0.8
-0.7
-0.8
-0.6
-0.8
-0.6
-0.8
-0.6
-0.9
-0.5
-0.9
-0.5
-0.9
-0.4
-0.9
-0.4
-0.9
-0.4
-0.9
-0.3
-0.9
-0.3
-0.8
-0.3
-0.8
-0.2
-0.8
-0.2
-0.8
-0.2
-0.8
-0.2
-0.8
-0.2
-0.8
-0.1
-0.8
-0.1
-0.7
-0.1
-0.7
-0.1
-0.7
-0.08
-0.7
-0.07
-0.7
-0.06
-0.6
-0.05
-0.6
-0.04
-0.6
-0.03
-0.5
-0.03
-0.5
-0.03
-0.5
-0.03
-0.4
-0.03
-0.4
-0.03
-0.4
-0.03
-0.3
-0.04
-0.3
-0.04
-0.2
-0.05
-0.2
-0.06
-0.1
-0.06
-0.1
-0.07
-0.06
-0.07
-0.02
-0.08
0.01
-0.09
0.05
-0.1
0.08
-0.1
0.1
-0.1
0.1
-0.1
0.1
-0.1
0.2
-0.1
0.2
-0.2
0.2
-0.2
0.2
-0.2
0.1
-0.2
0.1
-0.2
0.1
-0.2
0.09
-0.2
0.06
-0.2
0.04
-0.2
0.004
-0.2
-0.03
-0.2
-0.06
-0.2
-0.1
-0.2
-0.1
-0.2
-0.2
-0.2
-0.2
-0.3
-0.2
-0.3
-0.3
-0.3
-0.3
-0.3
-0.3
-0.3
-0.4
-0.3
-0.4
-0.3
-0.4
-0.3
-0.4
-0.3
-0.5
-0.3
-0.5
-0.3
-0.5
-0.3
-0.5
-0.3
-0.5
-0.3
-0.5
-0.3
-0.5
-0.3
-0.6
-0.3
-0.6
-0.4
-0.6
-0.4
-0.6
-0.4
-0.6
-0.4
-0.6
-0.4
-0.6
-0.4
-0.6
-0.4
-0.6
-0.4
-0.6
-0.5
-0.6
-0.5
-0.6
-0.5
-0.6
-0.5
-0.6
-0.5
-0.6
-0.5
-0.5
-0.5
-0.5
-0.4
-0.4
-0.4
-0.4
-0.4
-0.4
-0.4
-0.3
-0.4
-0.3
-0.4
-0.3
-0.5
-0.5
-0.3
-0.5
-0.5
-0.3
-0.5
-0.5
-0.3
-0.5
-0.5
-0.3
-0.5
-0.5
-0.3
-0.5
-0.5
-0.3
-0.5
-0.5
-0.3
-0.6
-0.5
-0.3
-0.6
-0.3
-0.6
-0.3
-0.6
-0.4
-0.6
-0.4
-0.6
-0.4
-0.6
-0.4
-0.6
-0.4
-0.6
-0.4
-0.6
-0.4
-0.6
-0.4
-0.4
-0.6
-0.5
-0.5
-0.6
-0.5
-0.5
-0.6
-0.5
-0.5
-0.5
-0.5
-0.6
-0.6
-0.6
-0.6
-0.6
-0.6
-0.6
-0.6
-0.6
-0.6
-0.7
-0.6
-0.7
-0.6
-0.7
-0.6
-0.8
-0.6
-0.8
-0.6
-0.8
-0.6
-0.9
-0.7
-0.9
-0.7
-0.9
-0.7
-0.9
-0.7
-1
-0.7
-1
-0.7
-1
-0.7
-0.7
-0.7
-1
-0.7
-0.7
-1
-0.7
-0.7
-1
-0.7
-0.7
-1
-0.7
-0.8
-1
-0.8
-0.8
-1
-0.8
-0.8
-1
-0.8
-0.8
-0.9
-0.8
-0.9
-0.8
-0.9
-0.8
-0.8
-0.8
-0.8
-0.8
-0.8
-0.8
-0.7
-0.8
-0.7
-0.8
-0.6
-0.8
-0.6
-0.8
-0.5
-0.5
-0.9
-0.5
-0.5
-0.9
-0.4
-0.4
-0.9
-0.4
-0.4
-0.9
-0.4
-0.4
-0.9
-0.3
-0.3
-0.9
-0.3
-0.3
-0.9
-0.3
-0.3
-0.8
-0.2
-0.8
-0.2
-0.8
-0.2
-0.8
-0.2
-0.8
-0.2
-0.8
-0.1
-0.8
-0.1
-0.8
-0.1
-0.7
-0.1
-0.7
-0.08
-0.7
-0.07
-0.7
-0.06
-0.7
-0.05
-0.6
-0.6
-0.04
-0.6
-0.6
-0.03
-0.6
-0.6
-0.03
-0.5
-0.5
-0.03
-0.5
-0.5
-0.03
-0.4
-0.5
-0.03
-0.4
-0.4
-0.03
-0.4
-0.4
-0.04
-0.3
-0.04
-0.3
-0.05
-0.2
-0.05
-0.2
-0.06
-0.2
-0.06
-0.1
-0.07
-0.08
-0.08
-0.05
-0.08
-0.003
-0.09
0.03
-0.1
-0.1
0.06
-0.1
-0.1
0.09
-0.1
-0.1
0.1
-0.1
-0.1
0.1
-0.1
-0.1
0.2
-0.2
-0.2
0.2
-0.2
-0.2
0.2
-0.2
-0.2
0.2
-0.2
0.2
-0.2
0.1
-0.2
0.1
-0.2
0.1
-0.2
0.08
-0.2
0.05
-0.2
0.02
-0.2
-0.02
-0.2
-0.05
-0.3
-0.08
-0.3
-0.1
-0.3
-0.2
-0.3
-0.2
-0.3
-0.2
-0.3
-0.2
-0.3
-0.3
-0.3
-0.3
-0.3
-0.3
-0.3
-0.3
-0.3
-0.4
-0.3
-0.4
-0.4
-0.3
-0.4
-0.4
-0.3
-0.4
-0.4
-0.3
-0.5
-0.3
-0.5
-0.3
-0.5
-0.3
-0.5
-0.3
-0.5
-0.3
-0.5
-0.3
-0.5
-0.3
-0.5
-0.3
-0.6
-0.3
-0.6
-0.3
-0.6
-0.3
-0.4
-0.6
-0.4
-0.4
-0.6
-0.4
-0.4
-0.6
-0.4
-0.4
-0.6
-0.4
-0.4
-0.6
-0.4
-0.4
-0.6
-0.4
-0.4
-0.6
-0.4
-0.6
-0.5
-0.6
-0.5
-0.6
-0.5
-0.6
-0.5
-0.6
-0.5
-0.5
-0.5
-0.5
-0.5
SCALARS strain_1 float
LOOKUP_TABLE default
-0.849686
-0.563055
0.544346
-2.157248
1.969163
-3.454560
3.469938
-4.665461
5.016438
-5.818290
6.647458
-6.902546
8.316866
-7.954403
10.026113
-8.910881
11.819419
-9.835007
13.639143
-10.681138
15.538771
-11.473980
17.464326
-12.213299
19.435826
-12.918666
21.456197
-13.572787
23.547858
-14.139049
25.641268
-14.678060
27.826695
-15.152029
30.030907
-15.585868
32.300042
-15.970837
34.564235
-16.303803
36.860327
-16.583617
39.223950
-16.795882
41.572308
-16.986325
43.956881
-17.142047
46.384737
-17.231146
48.848244
-17.298300
51.317380
-17.324324
53.788410
-17.337069
56.299407
-17.248472
58.768296
-17.164063
61.292723
-17.054118
63.801322
-16.914324
66.309942
68.837071
-16.733705
71.331164
-16.546563
73.821708
-16.284061
76.304509
-16.015627
78.791233
-15.733743
81.203478
-15.445104
83.635407
-15.114117
86.063317
-14.762603
88.439016
-14.398923
90.767355
-14.045621
93.058268
-13.627595
95.344906
-13.245715
97.565639
-12.815134
99.776618
101.876643
-12.395229
-11.988037
103.945515
-11.525004
105.975845
-11.117818
107.938986
-10.683541
109.847345
-10.230324
111.692782
-9.760702
113.455191
-9.344814
115.148180
-8.930742
116.778036
-8.450443
118.331955
-8.043902
119.815257
-7.611105
121.227358
-7.194604
122.539864
-6.782317
123.784450
-6.399453
124.941256
-6.029035
125.974034
-5.645014
126.992625
-5.292212
127.842574
-4.923786
-4.574315
128.632738
-4.269465
129.348118
-3.972251
129.959333
-3.685433
130.464346
-3.394688
130.871384
-3.144555
131.196923
-2.905352
131.441664
-2.707203
131.575420
-2.513304
131.594497
-2.314281
131.544668
-2.153387
131.367256
-1.989489
131.111991
-1.868324
130.733360
-1.757515
130.296432
-1.652009
129.769439
-1.617858
129.146606
-1.562577
128.413002
-1.523430
127.583137
-1.503136
126.708452
-1.509865
125.714147
-1.530783
124.628459
-1.574264
123.459562
-1.614269
122.221088
-1.697066
120.917040
-1.789239
119.516350
-1.878007
118.065556
-2.030783
116.507668
-2.164198
114.895072
-2.295415
113.214502
-2.487017
111.460514
-2.672439
109.672290
-2.847636
107.822211
-3.052434
105.894739
-3.255008
103.922071
-3.501278
101.890877
-3.734476
99.846983
-3.980319
97.735589
-4.212505
95.604482
-4.478470
93.425951
-4.762198
91.201877
-5.020282
88.953660
-5.301169
86.712459
-5.570254
84.397878
-5.884730
82.093819
-6.164847
79.780922
-6.449021
77.432972
-6.731190
75.082834
-7.050746
72.711639
-7.358681
70.388606
-7.645260
68.002603
-7.957242
65.649736
-8.247996
63.282105
-8.520559
60.950619
-8.783041
58.602261
-9.054803
56.282347
-9.350770
53.963451
-9.597063
51.690679
-9.866948
49.413155
-10.095556
47.175752
-10.365684
44.961765
-10.562396
42.775292
-10.775335
40.597443
-10.998449
38.494371
-11.192955
36.393686
-11.367461
34.360809
-11.530778
32.337552
-11.687621
30.358278
-11.830677
28.392164
-11.928983
26.507009
-12.020150
24.658117
-12.124270
22.864428
-12.148318
21.090786
-12.201489
19.352980
-12.203961
17.698332
-12.205328
16.057923
-12.179989
14.470562
-12.131616
12.947898
-12.029473
11.464987
-11.912908
10.031301
-11.762149
8.652690
-11.637000
7.295656
-11.386648
6.033137
-11.173161
4.771130
-10.932131
3.611400
-10.634994
2.473588
-10.294447
1.363053
-9.947380
0.331992
-9.544211
-0.678929
-9.093753
-1.610912
-8.646025
-2.518167
-8.120228
-3.371435
-7.552732
-4.175842
-6.971391
-4.927500
-6.365422
-5.664994
0.838740
-1.901680
2.286845
-3.205975
3.813994
-4.420273
5.387025
-5.604895
7.032017
-6.680303
8.693100
-7.742187
10.467442
-8.738108
12.266152
-9.655123
14.113897
-10.519650
16.024358
-11.347090
17.971611
-12.112070
19.968158
-12.833938
22.009785
-13.477314
24.130923
-14.045909
26.253456
-14.596627
28.439577
-15.084353
30.657096
-15.518882
32.891050
-15.868292
35.210301
-16.208807
37.539868
-16.502633
39.885056
-16.743188
42.263451
-16.933272
44.640598
-17.074356
47.080894
-17.196288
49.526456
-17.265937
52.001899
-17.273332
54.443734
-17.270301
56.941008
-17.224214
59.422155
-17.145831
61.916450
-16.989834
64.415283
-16.865670
66.907359
-16.684756
69.401688
-16.474041
71.866703
-16.231855
74.333386
-15.994902
76.764575
-15.705403
79.190702
-15.421035
81.580983
-15.084306
83.957582
-14.739446
86.298450
-14.377024
88.649656
-14.020828
90.895413
-13.638425
93.133345
-13.253613
95.325462
-12.819321
97.457124
-12.438916
99.549202
-12.008242
101.580678
-11.589107
103.531457
-11.164302
105.467341
-10.704408
107.327273
-10.282955
109.089654
-9.863190
110.792769
-9.440547
112.471416
-9.015099
114.017609
-8.615300
115.512585
-8.224834
116.941366
-7.805475
118.264072
-7.394445
119.488677
-7.001595
120.654401
-6.637790
121.718904
-6.258903
122.755620
-5.910267
123.612799
-5.622927
124.456416
-5.268837
125.127917
-4.946456
125.744375
-4.644394
126.263257
-4.380852
126.668090
-4.102192
126.985401
-3.862961
127.232653
-3.662999
127.328728
-3.429443
127.377525
-3.256371
127.316195
-3.090654
127.112163
-2.929465
126.879614
-2.794364
126.515170
-2.671081
126.049479
-2.600216
125.507879
-2.508887
124.874599
-2.456005
124.153227
-2.413639
123.308249
-2.383551
122.395499
-2.389050
121.392869
-2.419254
120.293205
-2.432976
119.126922
-2.480370
117.854619
-2.561297
116.547989
-2.628010
115.138782
-2.730866
113.637657
-2.880720
112.098464
-2.980490
110.454482
-3.110370
108.776619
-3.307765
106.999605
-3.503699
105.184162
-3.647008
103.323814
-3.834170
101.377261
-4.069715
99.400246
-4.293883
97.371709
-4.483342
95.322534
-4.744131
93.208201
-4.983807
91.057163
-5.255189
88.869804
-5.495617
86.656825
-5.771072
84.426880
-6.038415
82.149379
-6.312167
79.846223
-6.602870
77.548792
-6.891595
75.257045
-7.149312
72.918367
-7.451821
70.575848
-7.704226
68.250931
-8.022514
65.890789
-8.291823
63.568814
-8.583921
61.216597
-8.875761
58.905070
-9.146625
56.570713
-9.382906
54.287644
-9.658651
52.001082
-9.911680
49.716602
-10.155720
47.467039
-10.395185
45.285535
-10.611363
43.037975
-10.843370
40.897860
-11.027507
38.767739
-11.246857
36.651669
-11.401344
34.587694
-11.577948
32.560121
-11.733275
30.571540
-11.856118
28.628281
-11.990211
26.719519
-12.081174
24.832732
-12.177848
23.014755
-12.234379
21.232801
-12.255182
19.494378
-12.282548
17.802651
-12.267438
16.159215
-12.267706
14.561621
-12.203825
13.025687
-12.118309
11.528658
-12.004061
10.061928
-11.876046
8.674540
-11.696628
7.325183
-11.517628
6.042648
-11.275806
4.792703
-11.026573
3.580213
-10.733129
2.430996
-10.410315
1.332338
-10.045480
0.288126
-9.648869
-0.685578
-9.209489
-1.656398
-8.758122
-2.566522
-8.228121
-3.433518
-7.666076
-4.259144
-7.061046
-6.439357
-5.041222
-5.739955
0.275750
-1.389770
1.453067
-2.670222
2.884641
-3.948154
4.417896
-5.143781
6.001298
-6.245830
7.632097
-7.319547
9.296455
10.642898
-8.458317
12.459874
11.563507
-9.319278
14.312314
13.439303
-10.167082
15.285243
16.266864
-10.994160
17.268659
18.233584
-11.653512
20.220096
19.181680
-12.530907
21.216738
22.293674
-13.179919
24.541821
23.290376
-13.803521
26.084796
-14.394386
28.139779
-14.884481
30.343299
-15.432289
32.585929
-15.753984
34.866356
-16.085724
37.151084
-16.391272
39.457986
-16.673780
41.427919
-16.872854
44.320296
-17.051160
46.752173
-17.165815
-17.211418
49.171642
-17.302315
-17.300974
51.638275
-17.297320
-17.298563
54.125173
-17.284011
-17.312405
-17.277398
-17.230500
57.158878
-17.178171
-17.128307
59.451337
-17.116829
-16.988084
61.980606
-16.923534
-16.811258
64.559881
-16.693004
67.856957
-16.487017
72.099568
-16.235421
74.074854
-15.993109
76.052787
-15.734567
78.983657
-15.434220
81.430543
-15.165113
83.797545
-14.774950
86.635912
-14.395431
88.567203
-14.041202
90.856496
-13.553231
93.075275
-13.231641
95.326626
-12.901767
97.491877
99.563497
101.165627
-12.178929
103.261206
102.245233
-11.627876
105.306721
104.269884
-11.171477
106.234309
107.205589
-10.759751
108.080809
109.099629
-10.342274
109.892203
110.822420
-9.822320
111.667329
112.630386
-9.402079
113.352718
114.414705
-8.951955
115.482318
-8.548395
116.917052
-8.127813
118.347532
-7.611200
119.701601
-7.290783
121.011071
-6.948954
122.201329
-6.520202
123.276539
-6.151269
124.109851
-5.772213
125.282106
-5.441567
126.122775
-5.103601
-4.848055
126.872854
-4.702001
-4.560817
127.527660
-4.404437
-4.239313
128.094657
-4.127137
-3.976256
128.667529
-3.829133
-3.702000
128.932582
-3.454067
-3.589622
129.175446
-3.386799
-3.218169
129.367241
-2.985268
-3.142026
129.446080
-2.877579
129.431050
-2.682579
129.314873
-2.548961
129.113794
-2.398152
128.823334
-2.285451
128.402883
-2.197412
127.910197
-2.115680
127.194320
-2.005127
126.612956
-1.976400
125.861281
-1.963502
124.983398
-1.958552
124.026651
-1.943078
123.026256
-1.999685
121.963683
121.195989
-2.040571
120.295908
119.731142
-2.090497
118.993696
118.379729
-2.173026
117.020496
117.609348
-2.269531
116.224335
115.478144
-2.354359
113.958162
114.700396
-2.521690
113.035602
112.265952
-2.623883
110.482158
111.350267
-2.798178
109.184973
-2.970218
107.436868
-3.171785
105.542435
-3.411877
103.623878
-3.546345
101.639584
-3.782745
99.652932
-4.015528
97.629375
-4.236006
95.898278
-4.490194
93.305761
-4.740216
91.135034
-4.978917
-5.183285
88.926045
-5.327266
-5.458066
86.696969
-5.613763
-5.747311
84.424584
-5.902696
-6.025074
81.627589
-6.166578
-6.306538
79.724578
-6.474628
-6.583099
77.448671
-6.752719
-6.891002
75.167217
-7.050054
-7.175146
72.904880
-7.428251
70.969375
-7.688739
67.641482
-7.987189
65.727239
-8.265957
63.885816
-8.537358
61.073397
-8.814237
58.717421
-9.043125
56.426286
-9.370086
53.635050
-9.643709
51.748372
-9.893600
49.544881
-10.184132
47.328925
-10.370928
45.113929
-10.567128
42.946898
-10.857523
40.878717
-10.984393
39.379524
38.106526
-11.235190
37.149735
36.002668
-11.394399
34.968988
33.953184
-11.562500
32.948849
31.980008
-11.683394
30.970415
30.038790
-11.840536
28.947031
28.046909
-11.974488
27.043836
26.180627
-12.075726
25.096752
-12.139167
23.733911
-12.188780
21.995711
-12.220187
20.272195
-12.248056
18.581237
-12.236296
16.931988
-12.199424
15.316358
-12.148194
13.809111
-12.068231
12.559211
-11.966524
10.748464
-11.829387
9.339911
-11.716434
-11.611510
7.983177
-11.532635