# vtk DataFile Version 2.0
Generated volume Mesh
ASCII
DATASET UNSTRUCTURED_GRID
POINTS 994 float
-0.416146 -0.294827 0.000000
-0.409251 -0.287252 0.000000
-0.421925 -0.286495 0.000000
-0.410201 -0.303043 0.000000
-0.427538 -0.278049 0.000000
-0.404095 -0.311138 0.000000
-0.432982 -0.269494 0.000000
-0.397829 -0.319111 0.000000
-0.438254 -0.260832 0.000000
-0.391406 -0.326958 0.000000
-0.443353 -0.252067 0.000000
-0.384828 -0.334675 0.000000
-0.448277 -0.243202 0.000000
-0.378098 -0.342260 0.000000
-0.453024 -0.234242 0.000000
-0.371218 -0.349710 0.000000
-0.457592 -0.225188 0.000000
-0.364192 -0.357021 0.000000
-0.461979 -0.216046 0.000000
-0.357021 -0.364192 0.000000
-0.466183 -0.206818 0.000000
-0.349710 -0.371218 0.000000
-0.470203 -0.197508 0.000000
-0.342260 -0.378098 0.000000
-0.474037 -0.188120 0.000000
-0.334675 -0.384828 0.000000
-0.477683 -0.178658 0.000000
-0.326958 -0.391406 0.000000
-0.481141 -0.169126 0.000000
-0.319111 -0.397829 0.000000
-0.484408 -0.159526 0.000000
-0.311138 -0.404095 0.000000
-0.487484 -0.149864 0.000000
-0.303043 -0.410201 0.000000
-0.490368 -0.140141 0.000000
-0.294827 -0.416146 0.000000
-0.493057 -0.130363 0.000000
-0.286495 -0.421925 0.000000
-0.495552 -0.120532 0.000000
-0.278049 -0.427538 0.000000
-0.497851 -0.110654 0.000000
-0.269494 -0.432982 0.000000
-0.499953 -0.100732 0.000000
-0.260832 -0.438254 0.000000
-0.501857 -0.090771 0.000000
-0.252067 -0.443353 0.000000
-0.503563 -0.080774 0.000000
-0.243202 -0.448277 0.000000
-0.505069 -0.070746 0.000000
-0.234242 -0.453024 0.000000
-0.506376 -0.060691 0.000000
-0.225188 -0.457592 0.000000
-0.507482 -0.050612 0.000000
-0.216046 -0.461979 0.000000
-0.508388 -0.040514 0.000000
-0.206818 -0.466183 0.000000
-0.509093 -0.030400 0.000000
-0.197508 -0.470203 0.000000
-0.509597 -0.020274 0.000000
-0.188120 -0.474037 0.000000
-0.509899 -0.010139 0.000000
-0.178658 -0.477683 0.000000
-0.510000 0.000000 0.000000
-0.169126 -0.481141 0.000000
-0.509899 0.010139 0.000000
-0.509597 0.020274 0.000000
-0.159526 -0.484408 0.000000
-0.509093 0.030400 0.000000
-0.149864 -0.487484 0.000000
-0.508388 0.040514 0.000000
-0.140141 -0.490368 0.000000
-0.507482 0.050612 0.000000
-0.130363 -0.493057 0.000000
-0.506376 0.060691 0.000000
-0.120532 -0.495552 0.000000
-0.505069 0.070746 0.000000
-0.110654 -0.497851 0.000000
-0.503563 0.080774 0.000000
-0.100732 -0.499953 0.000000
-0.501857 0.090771 0.000000
-0.090771 -0.501857 0.000000
-0.499953 0.100732 0.000000
-0.080774 -0.503563 0.000000
-0.497851 0.110654 0.000000
-0.070746 -0.505069 0.000000
-0.495552 0.120532 0.000000
-0.060691 -0.506376 0.000000
-0.493057 0.130363 0.000000
-0.050612 -0.507482 0.000000
-0.490368 0.140141 0.000000
-0.040514 -0.508388 0.000000
-0.487484 0.149864 0.000000
-0.484408 0.159526 0.000000
-0.030400 -0.509093 0.000000
-0.020274 -0.509597 0.000000
-0.481141 0.169126 0.000000
-0.010139 -0.509899 0.000000
-0.477683 0.178658 0.000000
0.000000 -0.510000 0.000000
-0.474037 0.188120 0.000000
0.010139 -0.509899 0.000000
-0.470203 0.197508 0.000000
0.020274 -0.509597 0.000000
-0.466183 0.206818 0.000000
0.030400 -0.509093 0.000000
-0.461979 0.216046 0.000000
0.040514 -0.508388 0.000000
-0.457592 0.225188 0.000000
0.050612 -0.507482 0.000000
-0.453024 0.234242 0.000000
0.060691 -0.506376 0.000000
-0.448277 0.243202 0.000000
0.070746 -0.505069 0.000000
-0.443353 0.252067 0.000000
0.080774 -0.503563 0.000000
-0.438254 0.260832 0.000000
0.090771 -0.501857 0.000000
-0.432982 0.269494 0.000000
0.100732 -0.499953 0.000000
-0.427538 0.278049 0.000000
0.110654 -0.497851 0.000000
-0.421925 0.286495 0.000000
0.120532 -0.495552 0.000000
-0.416146 0.294827 0.000000
0.130363 -0.493057 0.000000
-0.410201 0.303043 0.000000
0.140141 -0.490368 0.000000
-0.404095 0.311138 0.000000
0.149864 -0.487484 0.000000
0.159526 -0.484408 0.000000
-0.397829 0.319111 0.000000
0.169126 -0.481141 0.000000
-0.391406 0.326958 0.000000
0.178658 -0.477683 0.000000
-0.384828 0.334675 0.000000
0.188120 -0.474037 0.000000
-0.378098 0.342260 0.000000
0.197508 -0.470203 0.000000
-0.371218 0.349710 0.000000
0.206818 -0.466183 0.000000
-0.364192 0.357021 0.000000
0.216046 -0.461979 0.000000
-0.357021 0.364192 0.000000
0.225188 -0.457592 0.000000
-0.349710 0.371218 0.000000
0.234242 -0.453024 0.000000
-0.342260 0.378098 0.000000
0.243202 -0.448277 0.000000
-0.334675 0.384828 0.000000
0.252067 -0.443353 0.000000
-0.326958 0.391406 0.000000
0.260832 -0.438254 0.000000
-0.319111 0.397829 0.000000
0.269494 -0.432982 0.000000
-0.311138 0.404095 0.000000
0.278049 -0.427538 0.000000
-0.303043 0.410201 0.000000
0.286495 -0.421925 0.000000
-0.294827 0.416146 0.000000
0.294827 -0.416146 0.000000
-0.286495 0.421925 0.000000
0.303043 -0.410201 0.000000
-0.278049 0.427538 0.000000
0.311138 -0.404095 0.000000
-0.269494 0.432982 0.000000
0.319111 -0.397829 0.000000
-0.260832 0.438254 0.000000
0.326958 -0.391406 0.000000
-0.252067 0.443353 0.000000
0.334675 -0.384828 0.000000
-0.243202 0.448277 0.000000
0.342260 -0.378098 0.000000
-0.234242 0.453024 0.000000
0.349710 -0.371218 0.000000
-0.225188 0.457592 0.000000
0.357021 -0.364192 0.000000
-0.216046 0.461979 0.000000
0.364192 -0.357021 0.000000
-0.206818 0.466183 0.000000
0.371218 -0.349710 0.000000
-0.197508 0.470203 0.000000
0.378098 -0.342260 0.000000
-0.188120 0.474037 0.000000
0.384828 -0.334675 0.000000
-0.178658 0.477683 0.000000
0.391406 -0.326958 0.000000
-0.169126 0.481141 0.000000
0.397829 -0.319111 0.000000
-0.159526 0.484408 0.000000
0.404095 -0.311138 0.000000
-0.149864 0.487484 0.000000
0.410201 -0.303043 0.000000
-0.140141 0.490368 0.000000
0.416146 -0.294827 0.000000
-0.130363 0.493057 0.000000
0.421925 -0.286495 0.000000
-0.120532 0.495552 0.000000
0.427538 -0.278049 0.000000
-0.110654 0.497851 0.000000
0.432982 -0.269494 0.000000
-0.100732 0.499953 0.000000
0.438254 -0.260832 0.000000
-0.090771 0.501857 0.000000
0.443353 -0.252067 0.000000
-0.080774 0.503563 0.000000
0.448277 -0.243202 0.000000
-0.070746 0.505069 0.000000
0.453024 -0.234242 0.000000
-0.060691 0.506376 0.000000
0.457592 -0.225188 0.000000
-0.050612 0.507482 0.000000
0.461979 -0.216046 0.000000
-0.040514 0.508388 0.000000
0.466183 -0.206818 0.000000
-0.030400 0.509093 0.000000
0.470203 -0.197508 0.000000
-0.020274 0.509597 0.000000
0.474037 -0.188120 0.000000
-0.010139 0.509899 0.000000
0.477683 -0.178658 0.000000
0.000000 0.510000 0.000000
0.481141 -0.169126 0.000000
0.010139 0.509899 0.000000
0.484408 -0.159526 0.000000
0.020274 0.509597 0.000000
0.487484 -0.149864 0.000000
0.030400 0.509093 0.000000
0.490368 -0.140141 0.000000
0.040514 0.508388 0.000000
0.493057 -0.130363 0.000000
0.050612 0.507482 0.000000
0.495552 -0.120532 0.000000
0.060691 0.506376 0.000000
0.497851 -0.110654 0.000000
0.070746 0.505069 0.000000
0.499953 -0.100732 0.000000
0.080774 0.503563 0.000000
0.501857 -0.090771 0.000000
0.090771 0.501857 0.000000
0.503563 -0.080774 0.000000
0.100732 0.499953 0.000000
0.505069 -0.070746 0.000000
0.110654 0.497851 0.000000
0.506376 -0.060691 0.000000
0.120532 0.495552 0.000000
0.507482 -0.050612 0.000000
0.130363 0.493057 0.000000
0.508388 -0.040514 0.000000
0.140141 0.490368 0.000000
0.509093 -0.030400 0.000000
0.149864 0.487484 0.000000
0.509597 -0.020274 0.000000
0.159526 0.484408 0.000000
0.509899 -0.010139 0.000000
0.169126 0.481141 0.000000
0.510000 0.000000 0.000000
0.178658 0.477683 0.000000
0.509899 0.010139 0.000000
0.188120 0.474037 0.000000
0.509597 0.020274 0.000000
0.197508 0.470203 0.000000
0.509093 0.030400 0.000000
0.206818 0.466183 0.000000
0.508388 0.040514 0.000000
0.216046 0.461979 0.000000
0.507482 0.050612 0.000000
0.225188 0.457592 0.000000
0.506376 0.060691 0.000000
0.234242 0.453024 0.000000
0.505069 0.070746 0.000000
0.243202 0.448277 0.000000
0.503563 0.080774 0.000000
0.252067 0.443353 0.000000
0.501857 0.090771 0.000000
0.260832 0.438254 0.000000
0.499953 0.100732 0.000000
0.269494 0.432982 0.000000
0.497851 0.110654 0.000000
0.278049 0.427538 0.000000
0.495552 0.120532 0.000000
0.286495 0.421925 0.000000
0.493057 0.130363 0.000000
0.294827 0.416146 0.000000
0.490368 0.140141 0.000000
0.303043 0.410201 0.000000
0.487484 0.149864 0.000000
0.311138 0.404095 0.000000
0.484408 0.159526 0.000000
0.319111 0.397829 0.000000
0.481141 0.169126 0.000000
0.326958 0.391406 0.000000
0.477683 0.178658 0.000000
0.334675 0.384828 0.000000
0.474037 0.188120 0.000000
0.342260 0.378098 0.000000
0.470203 0.197508 0.000000
0.349710 0.371218 0.000000
0.466183 0.206818 0.000000
0.357021 0.364192 0.000000
0.461979 0.216046 0.000000
0.364192 0.357021 0.000000
0.457592 0.225188 0.000000
0.371218 0.349710 0.000000
0.453024 0.234242 0.000000
0.378098 0.342260 0.000000
0.448277 0.243202 0.000000
0.384828 0.334675 0.000000
0.443353 0.252067 0.000000
0.391406 0.326958 0.000000
0.438254 0.260832 0.000000
0.397829 0.319111 0.000000
0.432982 0.269494 0.000000
0.404095 0.311138 0.000000
0.427538 0.278049 0.000000
0.410201 0.303043 0.000000
0.421925 0.286495 0.000000
0.416146 0.294827 0.000000
-0.415025 -0.278844 0.000000
-0.403306 -0.295541 0.000000
-0.420627 -0.270320 0.000000
-0.397194 -0.303706 0.000000
-0.426054 -0.261684 0.000000
-0.390916 -0.311745 0.000000
-0.431303 -0.252938 0.000000
-0.384475 -0.319654 0.000000
-0.436373 -0.244088 0.000000
-0.377875 -0.327430 0.000000
-0.441261 -0.235136 0.000000
-0.371117 -0.335070 0.000000
-0.445965 -0.226086 0.000000
-0.364205 -0.342571 0.000000
-0.450484 -0.216942 0.000000
-0.357141 -0.349929 0.000000
-0.454816 -0.207707 0.000000
-0.349929 -0.357141 0.000000
-0.458958 -0.198386 0.000000
-0.342571 -0.364205 0.000000
-0.462910 -0.188983 0.000000
-0.335070 -0.371117 0.000000
-0.466668 -0.179501 0.000000
-0.327430 -0.377875 0.000000
-0.470233 -0.169944 0.000000
-0.319654 -0.384475 0.000000
-0.473602 -0.160317 0.000000
-0.311745 -0.390916 0.000000
-0.476773 -0.150623 0.000000
-0.303706 -0.397194 0.000000
-0.479747 -0.140866 0.000000
-0.295541 -0.403306 0.000000
-0.482520 -0.131050 0.000000
-0.287252 -0.409251 0.000000
-0.485094 -0.121178 0.000000
[...]
POINT_DATA 994
SCALARS u1 float
LOOKUP_TABLE default
-0.03
-0.03
-0.03
-0.03
-0.04
-0.02
-0.04
-0.02
-0.05
-0.02
-0.05
-0.02
-0.06
-0.01
-0.06
-0.01
-0.07
-0.01
-0.07
-0.01
-0.08
-0.01
-0.09
-0.01
-0.09
-0.01
-0.1
-0.01
-0.1
-0.01
-0.1
-0.01
-0.1
-0.02
-0.1
-0.02
-0.1
-0.02
-0.2
-0.02
-0.2
-0.02
-0.2
-0.02
-0.2
-0.02
-0.2
-0.03
-0.2
-0.03
-0.2
-0.03
-0.2
-0.03
-0.2
-0.03
-0.2
-0.04
-0.2
-0.04
-0.2
-0.04
-0.2
-0.05
-0.2
-0.2
-0.05
-0.2
-0.05
-0.2
-0.05
-0.2
-0.05
-0.2
-0.06
-0.2
-0.06
-0.2
-0.06
-0.2
-0.06
-0.2
-0.06
-0.2
-0.06
-0.2
-0.06
-0.2
-0.06
-0.2
-0.06
-0.2
-0.1
-0.06
-0.06
-0.1
-0.06
-0.1
-0.06
-0.1
-0.06
-0.1
-0.06
-0.1
-0.06
-0.1
-0.05
-0.1
-0.05
-0.1
-0.05
-0.09
-0.06
-0.09
-0.06
-0.09
-0.06
-0.09
-0.06
-0.08
-0.06
-0.08
-0.06
-0.08
-0.06
-0.08
-0.07
-0.07
-0.07
-0.07
-0.07
-0.07
-0.07
-0.08
-0.07
-0.08
-0.07
-0.08
-0.07
-0.09
-0.07
-0.09
-0.07
-0.09
-0.07
-0.1
-0.07
-0.1
-0.08
-0.1
-0.08
-0.1
-0.08
-0.1
-0.08
-0.1
-0.08
-0.1
-0.09
-0.1
-0.09
-0.1
-0.09
-0.1
-0.09
-0.1
-0.1
-0.1
-0.1
-0.1
-0.1
-0.1
-0.1
-0.1
-0.1
-0.1
-0.1
-0.1
-0.1
-0.1
-0.1
-0.1
-0.1
-0.1
-0.1
-0.1
-0.1
-0.1
-0.1
-0.1
-0.1
-0.1
-0.1
-0.1
-0.1
-0.1
-0.1
-0.1
-0.1
-0.1
-0.1
-0.1
-0.1
-0.1
-0.1
-0.1
-0.1
-0.1
-0.1
-0.1
-0.1
-0.09
-0.1
-0.09
-0.1
-0.08
-0.1
-0.07
-0.1
-0.07
-0.1
-0.06
-0.1
-0.05
-0.1
-0.04
-0.1
-0.04
-0.1
-0.03
-0.1
-0.02
-0.1
-0.01
-0.1
-0.005
-0.1
0.003
-0.1
0.009
-0.1
0.02
-0.1
0.02
-0.1
0.03
-0.1
0.03
-0.2
0.03
-0.2
0.04
-0.2
0.04
-0.2
0.04
-0.2
0.04
-0.2
0.03
-0.2
0.03
-0.2
0.02
-0.2
0.02
-0.2
0.01
-0.2
0.003
-0.2
-0.005
-0.2
-0.01
-0.2
-0.02
-0.2
-0.03
-0.2
-0.04
-0.2
-0.05
-0.2
-0.06
-0.2
-0.07
-0.2
-0.08
-0.2
-0.09
-0.2
-0.1
-0.2
-0.1
-0.2
-0.1
-0.2
-0.1
-0.2
-0.1
-0.2
-0.1
-0.2
-0.1
-0.2
-0.1
-0.2
-0.2
-0.2
-0.2
-0.2
-0.2
-0.2
-0.2
-0.2
-0.2
-0.2
-0.04
-0.03
-0.04
-0.03
-0.05
-0.02
-0.05
-0.02
-0.05
-0.02
-0.06
-0.02
-0.07
-0.01
-0.07
-0.01
-0.08
-0.01
-0.09
-0.01
-0.09
-0.01
-0.1
-0.01
-0.1
-0.01
-0.1
-0.01
-0.1
-0.01
-0.1
-0.01
-0.1
-0.02
-0.2
-0.02
-0.2
-0.02
-0.2
-0.02
-0.2
-0.02
-0.2
-0.02
-0.2
-0.02
-0.2
-0.02
-0.2
-0.03
-0.2
-0.03
-0.2
-0.03
-0.2
-0.03
-0.2
-0.03
-0.2
-0.04
-0.2
-0.04
-0.2
-0.04
-0.2
-0.04
-0.2
-0.05
-0.2
-0.05
-0.2
-0.05
-0.2
-0.05
-0.2
-0.05
-0.2
-0.05
-0.2
-0.05
-0.2
-0.06
-0.2
-0.06
-0.2
-0.06
-0.2
-0.06
-0.2
-0.06
-0.1
-0.06
-0.1
-0.06
-0.1
-0.06
-0.1
-0.06
-0.1
-0.06
-0.1
-0.06
-0.1
-0.06
-0.1
-0.06
-0.1
-0.06
-0.09
-0.06
-0.09
-0.07
-0.09
-0.07
-0.08
-0.07
-0.08
-0.07
-0.08
-0.07
-0.08
-0.08
-0.08
-0.08
-0.07
-0.08
-0.07
-0.08
-0.07
-0.09
-0.07
-0.09
-0.07
-0.09
-0.07
-0.1
-0.07
-0.1
-0.07
-0.1
-0.07
-0.1
-0.07
-0.1
-0.08
-0.1
-0.08
-0.1
-0.08
-0.1
-0.08
-0.1
-0.08
-0.1
-0.09
-0.1
-0.09
-0.1
-0.09
-0.1
-0.09
-0.1
-0.1
-0.1
-0.1
-0.1
-0.1
-0.1
-0.1
-0.1
-0.1
-0.1
-0.1
-0.1
-0.1
-0.1
-0.1
-0.1
-0.1
-0.1
-0.1
-0.1
-0.1
-0.1
-0.1
-0.1
-0.1
-0.1
-0.1
-0.1
-0.1
-0.1
-0.1
-0.1
-0.1
-0.1
-0.1
-0.1
-0.1
-0.1
-0.1
-0.1
-0.1
-0.09
-0.1
-0.09
-0.1
-0.08
-0.1
-0.07
-0.1
-0.07
-0.1
-0.06
-0.1
-0.05
-0.1
-0.04
-0.1
-0.04
-0.1
-0.03
-0.1
-0.02
-0.1
-0.01
-0.1
-0.005
-0.1
0.002
-0.2
0.009
-0.2
0.02
-0.2
0.02
-0.2
0.03
-0.2
0.03
-0.2
0.03
-0.2
0.04
-0.2
0.04
-0.2
0.04
-0.2
0.04
-0.2
0.03
-0.2
0.03
-0.2
0.02
-0.2
0.02
-0.2
0.01
-0.2
0.003
-0.2
-0.006
-0.2
-0.01
-0.2
-0.02
-0.2
-0.03
-0.2
-0.04
-0.2
-0.05
-0.2
-0.06
-0.2
-0.07
-0.2
-0.08
-0.2
-0.09
-0.2
-0.1
-0.2
-0.1
-0.2
-0.1
-0.2
-0.1
-0.2
-0.1
-0.2
-0.1
-0.2
-0.1
-0.2
-0.1
-0.2
-0.2
-0.2
-0.2
-0.2
-0.2
-0.2
-0.2
-0.2
-0.03
-0.03
-0.04
-0.03
-0.04
-0.02
-0.05
-0.02
-0.05
-0.02
-0.05
-0.02
-0.06
-0.06
-0.01
-0.07
-0.07
-0.01
-0.08
-0.07
-0.01
-0.08
-0.08
-0.01
-0.09
-0.09
-0.01
-0.1
-0.1
-0.01
-0.1
-0.1
-0.01
-0.1
-0.1
-0.01
-0.1
-0.01
-0.1
-0.01
-0.1
-0.02
-0.2
-0.02
-0.2
-0.02
-0.2
-0.02
-0.2
-0.02
-0.2
-0.02
-0.2
-0.02
-0.2
-0.03
-0.03
-0.2
-0.03
-0.03
-0.2
-0.03
-0.03
-0.2
-0.03
-0.03
-0.03
-0.04
-0.2
-0.04
-0.04
-0.2
-0.04
-0.04
-0.2
-0.04
-0.04
-0.2
-0.04
-0.2
-0.05
-0.2
-0.05
-0.2
-0.05
-0.2
-0.05
-0.2
-0.05
-0.2
-0.05
-0.2
-0.06
-0.2
-0.06
-0.2
-0.06
-0.2
-0.06
-0.2
-0.06
-0.2
-0.06
-0.2
-0.1
-0.1
-0.06
-0.1
-0.1
-0.06
-0.1
-0.1
-0.06
-0.1
-0.1
-0.06
-0.1
-0.1
-0.06
-0.1
-0.1
-0.06
-0.1
-0.1
-0.06
-0.1
-0.1
-0.06
-0.1
-0.06
-0.09
-0.06
-0.09
-0.06
-0.09
-0.06
-0.08
-0.06
-0.08
-0.07
-0.08
-0.07
-0.08
-0.07
-0.08
-0.07
-0.07
-0.07
-0.08
-0.07
-0.08
-0.08
-0.07
-0.08
-0.08
-0.07
-0.08
-0.09
-0.07
-0.09
-0.09
-0.07
-0.09
-0.09
-0.07
-0.09
-0.1
-0.07
-0.1
-0.1
-0.07
-0.1
-0.07
-0.1
-0.08
-0.1
-0.08
-0.1
-0.08
-0.1
-0.08
-0.1
-0.08
-0.1
-0.09
-0.1
-0.09
-0.1
-0.09
-0.1
-0.09
-0.1
-0.1
-0.1
-0.1
-0.1
-0.1
-0.1
-0.1
-0.1
-0.1
-0.1
-0.1
-0.1
-0.1
-0.1
-0.1
-0.1
-0.1
-0.1
-0.1
-0.1
-0.1
-0.1
-0.1
-0.1
-0.1
-0.1
-0.1
-0.1
-0.1
-0.1
-0.1
-0.1
-0.1
-0.1
-0.1
-0.1
-0.1
-0.1
-0.1
-0.1
-0.1
-0.1
-0.1
-0.1
-0.1
-0.1
-0.1
-0.1
-0.1
-0.1
-0.1
-0.09
-0.1
-0.09
-0.09
-0.1
-0.09
-0.08
-0.1
-0.08
-0.08
-0.1
-0.07
-0.07
-0.1
-0.07
-0.06
-0.1
-0.06
-0.05
-0.1
-0.05
-0.1
-0.04
-0.1
-0.03
-0.1
-0.02
-0.1
-0.02
-0.1
-0.009
-0.1
-0.003
-0.1
0.006
-0.1
0.01
-0.1
0.02
-0.2
0.02
-0.2
0.03
-0.2
0.03
-0.2
0.04
-0.2
0.04
-0.2
-0.2
0.04
-0.2
-0.2
0.04
-0.2
-0.2
0.03
-0.2
-0.2
0.03
-0.2
-0.2
0.03
-0.2
-0.2
0.02
-0.2
-0.2
0.01
-0.2
0.007
-0.2
-0.001
-0.2
-0.01
-0.2
-0.02
-0.2
-0.03
-0.2
-0.04
-0.2
-0.05
-0.2
-0.06
-0.2
-0.07
-0.2
-0.08
-0.2
-0.08
-0.09
-0.2
-0.09
-0.1
-0.2
-0.1
-0.1
-0.2
-0.1
-0.1
-0.2
-0.1
-0.1
-0.2
-0.1
-0.1
-0.2
-0.1
-0.1
-0.2
-0.1
-0.2
-0.1
-0.2
-0.1
-0.2
-0.2
-0.2
-0.2
-0.2
-0.2
-0.2
-0.2
-0.2
-0.2
SCALARS u2 float
LOOKUP_TABLE default
-0.09
-0.08
-0.09
-0.08
-0.09
-0.08
-0.09
-0.08
-0.1
-0.08
-0.1
-0.08
-0.1
-0.07
-0.1
-0.07
-0.1
-0.07
-0.1
-0.07
-0.1
-0.07
-0.1
-0.07
-0.1
-0.07
-0.1
-0.07
-0.1
-0.07
-0.1
-0.07
-0.1
-0.08
-0.1
-0.08
-0.1
-0.08
-0.1
-0.08
-0.1
-0.08
-0.1
-0.09
-0.1
-0.09
-0.1
-0.09
-0.1
-0.1
-0.1
-0.1
-0.1
-0.1
-0.1
-0.1
-0.1
-0.1
-0.1
-0.1
-0.1
-0.1
-0.1
-0.1
-0.1
-0.1
-0.1
-0.1
-0.2
-0.1
-0.2
-0.1
-0.2
-0.1
-0.2
-0.1
-0.2
-0.1
-0.2
-0.1
-0.2
-0.1
-0.2
-0.1
-0.2
-0.1
-0.2
-0.1
-0.2
-0.1
-0.2
-0.2
-0.2
-0.2
-0.2
-0.2
-0.2
-0.2
-0.2
-0.2
-0.2
-0.2
-0.2
-0.2
-0.2
-0.2
-0.2
-0.2
-0.2
-0.2
-0.2
-0.2
-0.2
-0.2
-0.2
-0.2
-0.2
-0.2
-0.2
-0.2
-0.2
-0.2
-0.2
-0.2
-0.1
-0.2
-0.1
-0.2
-0.1
-0.1
-0.2
-0.1
-0.2
-0.1
-0.2
-0.09
-0.2
-0.08
-0.2
-0.07
-0.2
-0.07
-0.2
-0.06
-0.2
-0.06
-0.2
-0.05
-0.2
-0.04
-0.2
-0.04
-0.2
-0.04
-0.2
-0.03
-0.2
-0.03
-0.2
-0.03
-0.2
-0.02
-0.2
-0.02
-0.2
-0.02
-0.2
-0.01
-0.2
-0.01
-0.1
-0.009
-0.1
-0.008
-0.1
-0.007
-0.1
-0.006
-0.1
-0.006
-0.1
-0.006
-0.1
-0.007
-0.1
-0.008
-0.09
-0.009
-0.08
-0.01
-0.07
-0.01
-0.06
-0.01
-0.05
-0.01
-0.04
-0.02
-0.03
-0.02
-0.02
-0.02
-0.01
-0.02
-0.004
-0.02
0.003
-0.02
0.01
-0.03
0.02
-0.03
0.02
-0.03
0.03
-0.03
0.03
-0.04
0.03
-0.04
0.04
-0.04
0.04
-0.05
0.04
-0.05
0.03
-0.05
0.03
-0.05
0.03
-0.05
0.02
-0.05
0.01
-0.06
0.008
-0.06
0.002
-0.06
-0.006
-0.06
-0.01
-0.06
-0.02
-0.06
-0.03
-0.06
-0.04
-0.06
-0.05
-0.06
-0.05
-0.06
-0.06
-0.06
-0.07
-0.05
-0.08
-0.05
-0.08
-0.05
-0.09
-0.05
-0.09
-0.05
-0.1
-0.05
-0.1
-0.05
-0.1
-0.05
-0.1
-0.06
-0.1
-0.06
-0.1
-0.06
-0.1
-0.06
-0.1
-0.06
-0.1
-0.06
-0.1
-0.07
-0.1
-0.07
-0.1
-0.07
-0.1
-0.08
-0.1
-0.08
-0.1
-0.08
-0.1
-0.09
-0.1
-0.09
-0.1
-0.09
-0.1
-0.1
-0.1
-0.1
-0.1
-0.1
-0.1
-0.1
-0.1
-0.1
-0.1
-0.1
-0.1
-0.1
-0.1
-0.09
-0.08
-0.09
-0.08
-0.09
-0.08
-0.09
-0.08
-0.09
-0.07
-0.1
-0.07
-0.1
-0.07
-0.1
-0.07
-0.1
-0.07
-0.1
-0.07
-0.1
-0.07
-0.1
-0.07
-0.1
-0.07
-0.1
-0.07
-0.1
-0.08
-0.1
-0.08
-0.1
-0.08
-0.1
-0.08
-0.1
-0.08
-0.1
-0.09
-0.1
-0.09
-0.1
-0.09
-0.1
-0.1
-0.1
-0.1
-0.1
-0.1
-0.1
-0.1
-0.1
-0.1
-0.1
-0.1
-0.1
-0.1
-0.1
-0.1
-0.1
-0.1
-0.1
-0.2
-0.1
-0.2
-0.1
-0.2
-0.1
-0.2
-0.1
-0.2
-0.1
-0.2
-0.1
-0.2
-0.1
-0.2
-0.1
-0.2
-0.2
-0.2
-0.2
-0.2
-0.2
-0.2
-0.2
-0.2
-0.2
-0.2
-0.2
-0.2
-0.2
-0.2
-0.2
-0.2
-0.2
-0.2
-0.2
-0.2
-0.2
-0.2
-0.2
-0.2
-0.2
-0.2
-0.2
-0.2
-0.2
-0.2
-0.2
-0.2
-0.2
-0.2
-0.2
-0.2
-0.2
-0.2
-0.2
-0.1
-0.2
-0.1
-0.2
-0.1
-0.2
-0.1
-0.2
-0.1
-0.2
-0.1
-0.2
-0.09
-0.2
-0.08
-0.2
-0.07
-0.2
-0.07
-0.2
-0.06
-0.2
-0.05
-0.2
-0.05
-0.2
-0.04
-0.2
-0.04
-0.2
-0.04
-0.2
-0.03
-0.2
-0.03
-0.2
-0.02
-0.2
-0.02
-0.2
-0.02
-0.2
-0.02
-0.1
-0.01
-0.1
-0.01
-0.1
-0.009
-0.1
-0.007
-0.1
-0.006
-0.1
-0.006
-0.1
-0.006
-0.1
-0.006
-0.09
-0.007
-0.08
-0.008
-0.07
-0.009
-0.06
-0.01
-0.05
-0.01
-0.04
-0.01
-0.03
-0.01
-0.02
-0.01
-0.01
-0.02
-0.005
-0.02
0.003
-0.02
0.01
-0.02
0.02
-0.02
0.02
-0.03
0.03
-0.03
0.03
-0.03
0.03
-0.03
0.04
-0.03
0.04
-0.04
0.04
-0.04
0.03
-0.04
0.03
-0.04
0.03
-0.05
0.02
-0.05
0.01
-0.05
0.008
-0.05
0.001
-0.05
-0.006
-0.05
-0.01
-0.05
-0.02
-0.05
-0.03
-0.05
-0.04
-0.05
-0.05
-0.06
-0.05
-0.06
-0.06
-0.06
-0.07
-0.06
-0.08
-0.06
-0.08
-0.06
-0.09
-0.06
-0.09
-0.06
-0.1
-0.06
-0.1
-0.06
-0.1
-0.06
-0.1
-0.06
-0.1
-0.07
-0.1
-0.07
-0.1
-0.07
-0.1
-0.07
-0.1
-0.08
-0.1
-0.08
-0.1
-0.08
-0.1
-0.08
-0.1
-0.09
-0.1
-0.09
-0.1
-0.09
-0.1
-0.1
-0.1
-0.1
-0.1
-0.1
-0.1
-0.1
-0.1
-0.1
-0.1
-0.1
-0.1
-0.1
-0.1
-0.1
-0.1
-0.1
-0.1
-0.09
-0.08
-0.09
-0.08
-0.09
-0.08
-0.09
-0.08
-0.1
-0.08
-0.1
-0.07
-0.1
-0.1
-0.07
-0.1
-0.1
-0.07
-0.1
-0.1
-0.07
-0.1
-0.1
-0.07
-0.1
-0.1
-0.07
-0.1
-0.1
-0.07
-0.1
-0.1
-0.07
-0.1
-0.1
-0.07
-0.1
-0.07
-0.1
-0.08
-0.1
-0.08
-0.1
-0.08
-0.1
-0.08
-0.1
-0.08
-0.1
-0.09
-0.1
-0.09
-0.1
-0.09
-0.1
-0.1
-0.1
-0.1
-0.1
-0.1
-0.1
-0.1
-0.1
-0.1
-0.1
-0.1
-0.1
-0.1
-0.1
-0.1
-0.1
-0.1
-0.1
-0.1
-0.1
-0.1
-0.1
-0.1
-0.1
-0.1
-0.2
-0.1
-0.2
-0.1
-0.2
-0.1
-0.2
-0.1
-0.2
-0.1
-0.2
-0.1
-0.2
-0.1
-0.2
-0.1
-0.2
-0.1
-0.2
-0.1
-0.2
-0.2
-0.2
-0.2
-0.2
-0.2
-0.2
-0.2
-0.2
-0.2
-0.2
-0.2
-0.2
-0.2
-0.2
-0.2
-0.2
-0.2
-0.2
-0.2
-0.2
-0.2
-0.2
-0.2
-0.2
-0.2
-0.2
-0.2
-0.2
-0.2
-0.2
-0.2
-0.2
-0.2
-0.2
-0.2
-0.2
-0.2
-0.2
-0.2
-0.2
-0.1
-0.2
-0.1
-0.2
-0.1
-0.2
-0.1
-0.1
-0.2
-0.1
-0.1
-0.2
-0.1
-0.1
-0.2
-0.09
-0.09
-0.2
-0.08
-0.08
-0.2
-0.07
-0.08
-0.2
-0.07
-0.07
-0.2
-0.06
-0.06
-0.2
-0.05
-0.2
-0.05
-0.2
-0.04
-0.2
-0.04
-0.2
-0.04
-0.2
-0.03
-0.2
-0.03
-0.2
-0.03
-0.2
-0.02
-0.2
-0.02
-0.2
-0.02
-0.2
-0.01
-0.1
-0.01
-0.1
-0.1
-0.009
-0.1
-0.1
-0.007
-0.1
-0.1
-0.007
-0.1
-0.1
-0.006
-0.1
-0.1
-0.006
-0.1
-0.1
-0.006
-0.09
-0.09
-0.007
-0.08
-0.09
-0.008
-0.07
-0.009
-0.06
-0.01
-0.05
-0.01
-0.05
-0.01
-0.04
-0.01
-0.03
-0.02
-0.02
-0.02
-0.01
-0.02
-0.0005
-0.02
0.007
-0.02
-0.02
0.01
-0.02
-0.03
0.02
-0.03
-0.03
0.03
-0.03
-0.03
0.03
-0.03
-0.03
0.03
-0.03
-0.04
0.04
-0.04
-0.04
0.04
-0.04
-0.04
0.04
-0.04
0.03
-0.04
0.03
-0.05
0.03
-0.05
0.02
-0.05
0.02
-0.05
0.01
-0.05
0.005
-0.05
-0.004
-0.05
-0.01
-0.06
-0.02
-0.06
-0.03
-0.06
-0.03
-0.06
-0.04
-0.06
-0.05
-0.06
-0.05
-0.06
-0.06
-0.06
-0.07
-0.06
-0.07
-0.07
-0.06
-0.08
-0.08
-0.06
-0.08
-0.09
-0.06
-0.09
-0.09
-0.06
-0.09
-0.1
-0.06
-0.1
-0.06
-0.1
-0.06
-0.1
-0.06
-0.1
-0.06
-0.1
-0.06
-0.1
-0.06
-0.1
-0.07
-0.1
-0.07
-0.1
-0.07
-0.1
-0.07
-0.1
-0.08
-0.08
-0.1
-0.08
-0.08
-0.1
-0.08
-0.08
-0.1
-0.09
-0.09
-0.1
-0.09
-0.09
-0.1
-0.09
-0.09
-0.1
-0.1
-0.1
-0.1
-0.1
-0.1
-0.1
-0.1
-0.1
-0.1
-0.1
-0.1
-0.1
-0.1
-0.1
-0.1
-0.1
-0.1
-0.1
SCALARS strain_1 float
LOOKUP_TABLE default
-0.194456
-0.130263
0.121930
-0.495903
0.445805
-0.777782
0.790171
-1.051570
1.136909
-1.308787
1.502189
-1.555415
1.883021
-1.790973
2.272506
-2.008872
2.674923
-2.214431
3.091061
-2.406919
3.512622
-2.590435
3.951748
-2.757171
4.402273
-2.910796
4.859132
-3.052724
5.332813
-3.185580
5.813193
-3.306143
6.304652
-3.413874
6.804568
-3.506396
7.308668
-3.592630
7.828477
-3.660622
8.353860
-3.728393
8.881212
-3.779893
9.420413
-3.819044
9.969931
-3.852629
10.517679
-3.872671
11.071575
-3.887592
11.631074
-3.890944
12.197257
-3.889264
12.759685
-3.875974
13.331409
-3.856887
13.900282
-3.828108
14.470803
-3.793503
15.044676
15.619874
-3.751546
16.183327
-3.704828
16.749184
-3.648835
17.316947
-3.590850
17.880562
-3.530946
18.430012
-3.456021
18.986155
-3.383177
19.534215
-3.307125
20.071425
-3.224276
20.607055
-3.138249
21.127234
-3.049859
21.643791
-2.958931
22.154261
-2.864453
22.647536
23.131705
-2.772538
-2.676675
23.608349
-2.584259
24.065857
-2.482499
24.513365
-2.381664
24.947081
-2.282872
25.365276
-2.181445
25.765552
-2.082525
26.157538
-1.985093
26.529624
-1.892094
26.880809
-1.790243
27.220239
-1.698173
27.539408
-1.610042
27.842695
-1.514889
28.120319
-1.425974
28.384470
-1.334532
28.625051
-1.258035
28.846087
-1.171185
29.053157
-1.094496
-1.017384
29.235391
-0.947971
29.391790
-0.880060
29.534907
-0.816780
29.644278
-0.754731
29.741493
-0.694912
29.816577
-0.643205
29.868117
-0.596701
29.895714
-0.549310
29.900459
-0.508572
29.887147
-0.470528
29.849839
-0.439111
29.795904
-0.410069
29.717202
-0.385739
29.613097
-0.366994
29.489868
-0.349285
29.346689
-0.339579
29.182695
-0.337422
29.001885
-0.334276
28.790449
-0.332669
28.567105
-0.334394
28.321274
-0.348804
28.059522
-0.355961
27.779399
-0.375971
27.476781
-0.395903
27.156723
-0.416828
26.821218
-0.443941
26.472745
-0.472510
26.103041
-0.505601
25.722893
-0.543417
25.326607
-0.582923
24.917575
-0.626097
24.491883
-0.668855
24.053708
-0.718801
23.601641
-0.768798
23.145781
-0.819970
22.677079
-0.874228
22.197952
-0.929571
21.708446
-0.987236
21.211527
-1.048220
20.704918
-1.107775
20.199651
-1.167998
19.681971
-1.236594
19.156684
-1.300882
18.631158
-1.362955
18.099395
-1.421917
17.570958
-1.491936
17.037709
-1.553622
16.496091
-1.620417
15.958715
-1.687689
15.422455
-1.751071
14.883328
-1.815203
14.349134
-1.881511
13.813806
-1.943109
13.280936
-2.002579
12.755874
-2.063528
12.230670
-2.128296
11.709885
-2.181141
11.192830
-2.235323
10.684009
-2.290790
10.176809
-2.340351
9.682387
-2.389630
9.189187
-2.436380
8.708012
-2.480183
8.234744
-2.522882
7.766696
-2.559905
7.306841
-2.593406
6.860902
-2.619052
6.422153
-2.648694
5.989296
-2.670616
5.574167
-2.686177
5.158496
-2.701174
4.759188
-2.713485
4.370977
-2.714017
3.990375
-2.716572
3.619015
-2.709012
3.259031
-2.699151
2.913581
-2.681441
2.576674
-2.656745
2.254404
-2.625430
1.945182
-2.586639
1.640390
-2.541974
1.355091
-2.497957
1.072315
-2.441291
0.809510
-2.373808
0.549516
-2.305702
0.305515
-2.223366
0.072368
-2.137477
-0.152977
-2.038946
-0.361985
-1.933200
-0.567353
-1.824085
-0.757493
-1.697195
-0.941132
-1.566147
-1.109729
-1.424157
-1.269758
0.189317
-0.429442
0.520933
-0.720554
0.863737
-0.992735
1.226830
-1.258869
1.590733
-1.511518
1.972422
-1.746898
2.371775
-1.971975
2.776092
-2.178512
3.196909
-2.373414
3.628309
-2.558030
4.069305
-2.732546
4.519663
-2.883182
4.987855
-3.030816
5.464421
-3.164472
5.948447
-3.284400
6.440592
-3.389632
6.946783
-3.491102
7.453577
-3.577226
7.977030
-3.651676
8.499679
-3.715013
9.039760
-3.763822
9.571760
-3.808136
10.121614
-3.840022
10.673073
-3.867430
11.223692
-3.882500
11.780969
-3.879871
12.348073
-3.875793
12.908025
-3.867843
13.473694
-3.842841
14.043123
-3.819363
14.614527
-3.780028
15.179410
-3.740289
15.740450
-3.696380
16.306788
-3.641413
16.863342
-3.584807
17.414496
-3.519864
17.970057
-3.448979
18.517082
-3.374559
19.056718
-3.300214
19.591145
-3.218335
20.117602
-3.136085
20.628810
-3.047859
21.139595
-2.957281
21.636313
-2.869186
22.121773
-2.771202
22.595766
-2.682272
23.061887
-2.586657
23.509621
-2.489145
23.949015
-2.397331
24.367674
-2.299995
24.775398
-2.206865
25.166807
-2.106604
25.544256
-2.011680
25.896011
-1.914615
26.235118
-1.826343
26.562964
-1.735229
26.866407
-1.645326
27.146161
-1.559522
27.413621
-1.479307
27.656679
-1.393710
27.878681
-1.315583
28.085029
-1.240298
28.266742
-1.164220
28.429960
-1.098655
28.568067
-1.035139
28.687095
-0.975287
28.778716
-0.911914
28.855119
-0.855052
28.905782
-0.811066
28.932705
-0.765583
28.941906
-0.723076
28.927322
-0.683199
28.885693
-0.645547
28.829822
-0.615875
28.747235
-0.595005
28.644192
-0.568305
28.519217
-0.555941
28.373317
-0.541816
28.204339
-0.530602
28.017445
-0.527130
27.806700
-0.525384
27.579580
-0.531368
27.333203
-0.535881
27.060890
-0.545906
26.775868
-0.563539
26.476714
-0.580747
26.155280
-0.602976
25.815394
-0.628481
25.460634
-0.655878
25.091472
-0.687936
24.707025
-0.727172
24.305503
-0.764087
23.895559
-0.800171
23.466056
-0.848860
23.030108
-0.891263
22.571626
-0.945092
22.115683
-0.992364
21.640583
-1.044329
21.160042
-1.102165
20.674400
-1.158199
20.171306
-1.216539
19.669490
-1.272256
19.159032
-1.334094
18.640651
-1.399271
18.123120
-1.456503
17.594267
-1.521809
17.070075
-1.577431
16.540324
-1.646467
16.008892
-1.709767
15.472537
-1.769838
14.944117
-1.832874
14.406094
-1.892951
13.877682
-1.956205
13.347505
-2.019226
12.821657
-2.074826
12.293341
-2.138462
11.776452
-2.193305
11.265611
-2.244311
10.750781
-2.297344
10.245375
-2.349798
9.746570
-2.400038
9.252637
-2.443856
8.770282
-2.491766
8.293564
-2.529310
7.824062
-2.567608
7.363773
-2.605942
6.907062
-2.629060
6.464973
-2.660710
6.033459
-2.680521
5.608233
-2.701802
5.192642
-2.716504
4.788319
-2.727014
4.393968
-2.731391
4.015692
-2.730861
3.643150
-2.726889
3.277746
-2.711065
2.937350
-2.694139
2.593692
-2.677633
2.270381
-2.647342
1.952517
-2.607407
1.652844
-2.573163
1.350853
-2.518606
1.076315
-2.462107
0.802190
-2.400018
0.541402
-2.326650
0.293094
-2.245921
0.058970
-2.161551
-0.160981
-2.063101
-0.379087
-1.955826
-0.581383
-1.841679
-0.776105
-1.719370
-0.960884
-1.587626
-1.448330
-1.128522
-1.293484
0.062536
-0.316881
0.328997
-0.606607
0.655562
-0.887611
1.001241
-1.158318
1.366595
-1.406327
1.732047
-1.656128
2.105226
2.412759
-1.902518
2.816653
2.617154
-2.097680
3.239916
3.041394
-2.294057
3.457694
3.682266
-2.477531
3.901171
4.129802
-2.622018
4.578240
4.345114
-2.823365
4.806978
5.051132
-2.973361
5.556935
5.274787
-3.110184
5.905519
-3.236948
6.378184
-3.348482
6.872058
-3.471394
7.380674
-3.541869
7.900189
-3.621852
8.420881
-3.691399
8.939966
-3.743960
9.385991
-3.798259
10.046407
-3.829704
10.597100
-3.860394
-3.873877
11.150175
-3.881896
-3.875804
11.702755
-3.885268
-3.890239
12.271005
-3.882673
-3.883688
-3.875461
-3.866256
12.960239
-3.857937
-3.840226
13.485760
-3.835082
-3.816057
14.057653
-3.798496
-3.774651
14.640536
-3.745351
15.389766
-3.697507
16.354509
-3.648705
16.802637
-3.586249
17.255937
-3.523187
17.927643
-3.454443
18.476393
-3.393790
19.020674
-3.302597
19.660681
-3.219931
20.106061
-3.133358
20.614526
-3.033007
21.134557
-2.959924
21.639183
-2.885372
22.137729
22.600465
22.972632
-2.719409
23.442359
23.211226
-2.595674
23.914503
23.670337
-2.492397
24.120821
24.344212
-2.395351
24.548428
24.773849
-2.307414
24.956223
25.173034
-2.191457
25.360692
25.578385
-2.095957
25.744622
25.989327
-1.996398
26.229732
-1.902615
26.553503
-1.808107
26.884185
-1.697095
27.194856
-1.620344
27.488200
-1.534827
27.759074
-1.452933
28.004789
-1.365752
28.206981
-1.288693
28.466059
-1.209320
28.659411
-1.135974
-1.073650
28.825658
-1.045420
-1.003643
28.974131
-0.974801
-0.937279
29.106759
-0.906646
-0.876152
29.236850
-0.848639
-0.816100
29.298623
-0.763270
-0.792837
29.358596
-0.739154
-0.717771
29.402790
-0.663842
-0.693133
29.415212
-0.636030
29.413718
-0.596826
29.389760
-0.562634
29.342529
-0.531136
29.269381
-0.504005
29.180309
-0.481268
29.063876
-0.463055
28.900787
-0.446486
28.767965
-0.439994
28.603070
-0.431776
28.398793
-0.429118
28.187671
-0.430268
27.953297
-0.437564
27.707886
27.539891
-0.447763
27.338004
27.206711
-0.462663
27.037939
26.898188
-0.478693
26.585359
26.721914
-0.498495
26.401409
26.234150
-0.516623
25.891596
26.058676
-0.553456
25.679575
25.503171
-0.582083
25.104879
25.297499
-0.615556
24.799256
-0.655485
24.403761
-0.693335
23.970129
-0.746748
23.535148
-0.786202
23.086877
-0.835169
22.627905
-0.879362
22.172060
-0.936471
21.771272
-0.985054
21.188802
-1.042970
20.689073
-1.094685
-1.135814
20.188190
-1.175445
-1.206038
19.674162
-1.240862
-1.266891
19.158640
-1.301341
-1.326621
18.527103
-1.359469
-1.388783
18.092925
-1.422273
-1.455571
17.581698
-1.491393
-1.519050
17.051282
-1.557894
-1.585520
16.535577
-1.632156
16.103408
-1.696613
15.337235
-1.761469
14.908999
-1.825734
14.485852
-1.885860
13.847428
-1.945253
13.312784
-1.998497
12.789128
-2.075464
12.149843
-2.129938
11.724217
-2.185498
11.225227
-2.252881
10.720373
-2.296958
10.214692
-2.336057
9.722898
-2.405029
9.252241