# vtk DataFile Version 2.0
Generated volume Mesh
ASCII
DATASET UNSTRUCTURED_GRID
POINTS 1240 float
-0.212153 -0.150304 0.000000
-0.206421 -0.141033 0.000000
-0.215099 -0.146056 0.000000
-0.209122 -0.154492 0.000000
-0.217961 -0.141751 0.000000
-0.206009 -0.158620 0.000000
-0.220736 -0.137389 0.000000
-0.202815 -0.162684 0.000000
-0.223424 -0.132973 0.000000
-0.226023 -0.128505 0.000000
-0.199540 -0.166684 0.000000
-0.228534 -0.123985 0.000000
-0.196187 -0.170619 0.000000
-0.230953 -0.119417 0.000000
-0.192756 -0.174486 0.000000
-0.233282 -0.114802 0.000000
-0.189249 -0.178283 0.000000
-0.235519 -0.110141 0.000000
-0.185666 -0.182011 0.000000
-0.237662 -0.105436 0.000000
-0.182011 -0.185666 0.000000
-0.239711 -0.100690 0.000000
-0.178283 -0.189249 0.000000
-0.241666 -0.095904 0.000000
-0.174486 -0.192756 0.000000
-0.243525 -0.091081 0.000000
-0.170619 -0.196187 0.000000
-0.245288 -0.086221 0.000000
-0.166684 -0.199540 0.000000
-0.246953 -0.081327 0.000000
-0.162684 -0.202815 0.000000
-0.248521 -0.076401 0.000000
-0.158620 -0.206009 0.000000
-0.249991 -0.071445 0.000000
-0.154492 -0.209122 0.000000
-0.251363 -0.066459 0.000000
-0.150304 -0.212153 0.000000
-0.252634 -0.061448 0.000000
-0.146056 -0.215099 0.000000
-0.253806 -0.056412 0.000000
-0.141751 -0.217961 0.000000
-0.137389 -0.220736 0.000000
-0.254878 -0.051354 0.000000
-0.132973 -0.223424 0.000000
-0.255849 -0.046275 0.000000
-0.128505 -0.226023 0.000000
-0.256718 -0.041179 0.000000
-0.123985 -0.228534 0.000000
-0.257486 -0.036067 0.000000
-0.119417 -0.230953 0.000000
-0.258152 -0.030940 0.000000
-0.114802 -0.233282 0.000000
-0.258717 -0.025802 0.000000
-0.110141 -0.235519 0.000000
-0.259178 -0.020654 0.000000
-0.105436 -0.237662 0.000000
-0.259538 -0.015498 0.000000
-0.100690 -0.239711 0.000000
-0.259794 -0.010336 0.000000
-0.095904 -0.241666 0.000000
-0.259949 -0.005169 0.000000
-0.091081 -0.243525 0.000000
-0.260000 0.000000 0.000000
-0.259949 0.005169 0.000000
-0.086221 -0.245288 0.000000
-0.259794 0.010336 0.000000
-0.081327 -0.246953 0.000000
-0.259538 0.015498 0.000000
-0.076401 -0.248521 0.000000
-0.259178 0.020654 0.000000
-0.071445 -0.249991 0.000000
-0.258717 0.025802 0.000000
-0.066459 -0.251363 0.000000
-0.258152 0.030940 0.000000
-0.061448 -0.252634 0.000000
-0.257486 0.036067 0.000000
-0.056412 -0.253806 0.000000
-0.256718 0.041179 0.000000
-0.051354 -0.254878 0.000000
-0.255849 0.046275 0.000000
-0.046275 -0.255849 0.000000
-0.254878 0.051354 0.000000
-0.041179 -0.256718 0.000000
-0.253806 0.056412 0.000000
-0.036067 -0.257486 0.000000
-0.252634 0.061448 0.000000
-0.030940 -0.258152 0.000000
-0.251363 0.066459 0.000000
-0.025802 -0.258717 0.000000
-0.249991 0.071445 0.000000
-0.020654 -0.259178 0.000000
-0.248521 0.076401 0.000000
-0.015498 -0.259538 0.000000
-0.010336 -0.259794 0.000000
-0.246953 0.081327 0.000000
-0.005169 -0.259949 0.000000
-0.245288 0.086221 0.000000
0.000000 -0.260000 0.000000
-0.243525 0.091081 0.000000
0.005169 -0.259949 0.000000
-0.241666 0.095904 0.000000
0.010336 -0.259794 0.000000
-0.239711 0.100690 0.000000
0.015498 -0.259538 0.000000
-0.237662 0.105436 0.000000
0.020654 -0.259178 0.000000
-0.235519 0.110141 0.000000
0.025802 -0.258717 0.000000
-0.233282 0.114802 0.000000
0.030940 -0.258152 0.000000
-0.230953 0.119417 0.000000
0.036067 -0.257486 0.000000
-0.228534 0.123985 0.000000
0.041179 -0.256718 0.000000
-0.226023 0.128505 0.000000
-0.223424 0.132973 0.000000
0.046275 -0.255849 0.000000
-0.220736 0.137389 0.000000
0.051354 -0.254878 0.000000
-0.217961 0.141751 0.000000
0.056412 -0.253806 0.000000
-0.215099 0.146056 0.000000
0.061448 -0.252634 0.000000
-0.212153 0.150304 0.000000
0.066459 -0.251363 0.000000
-0.209122 0.154492 0.000000
0.071445 -0.249991 0.000000
-0.206009 0.158620 0.000000
0.076401 -0.248521 0.000000
-0.202815 0.162684 0.000000
0.081327 -0.246953 0.000000
-0.199540 0.166684 0.000000
0.086221 -0.245288 0.000000
-0.196187 0.170619 0.000000
0.091081 -0.243525 0.000000
-0.192756 0.174486 0.000000
0.095904 -0.241666 0.000000
-0.189249 0.178283 0.000000
0.100690 -0.239711 0.000000
-0.185666 0.182011 0.000000
0.105436 -0.237662 0.000000
-0.182011 0.185666 0.000000
0.110141 -0.235519 0.000000
-0.178283 0.189249 0.000000
0.114802 -0.233282 0.000000
-0.174486 0.192756 0.000000
0.119417 -0.230953 0.000000
0.123985 -0.228534 0.000000
-0.170619 0.196187 0.000000
0.128505 -0.226023 0.000000
-0.166684 0.199540 0.000000
0.132973 -0.223424 0.000000
-0.162684 0.202815 0.000000
0.137389 -0.220736 0.000000
-0.158620 0.206009 0.000000
0.141751 -0.217961 0.000000
-0.154492 0.209122 0.000000
0.146056 -0.215099 0.000000
-0.150304 0.212153 0.000000
0.150304 -0.212153 0.000000
-0.146056 0.215099 0.000000
0.154492 -0.209122 0.000000
-0.141751 0.217961 0.000000
0.158620 -0.206009 0.000000
-0.137389 0.220736 0.000000
0.162684 -0.202815 0.000000
-0.132973 0.223424 0.000000
-0.128505 0.226023 0.000000
0.166684 -0.199540 0.000000
-0.123985 0.228534 0.000000
0.170619 -0.196187 0.000000
-0.119417 0.230953 0.000000
0.174486 -0.192756 0.000000
-0.114802 0.233282 0.000000
0.178283 -0.189249 0.000000
-0.110141 0.235519 0.000000
0.182011 -0.185666 0.000000
-0.105436 0.237662 0.000000
0.185666 -0.182011 0.000000
-0.100690 0.239711 0.000000
0.189249 -0.178283 0.000000
-0.095904 0.241666 0.000000
0.192756 -0.174486 0.000000
-0.091081 0.243525 0.000000
0.196187 -0.170619 0.000000
-0.086221 0.245288 0.000000
0.199540 -0.166684 0.000000
-0.081327 0.246953 0.000000
0.202815 -0.162684 0.000000
-0.076401 0.248521 0.000000
0.206009 -0.158620 0.000000
-0.071445 0.249991 0.000000
0.209122 -0.154492 0.000000
-0.066459 0.251363 0.000000
0.212153 -0.150304 0.000000
-0.061448 0.252634 0.000000
0.215099 -0.146056 0.000000
-0.056412 0.253806 0.000000
0.217961 -0.141751 0.000000
0.220736 -0.137389 0.000000
-0.051354 0.254878 0.000000
0.223424 -0.132973 0.000000
-0.046275 0.255849 0.000000
0.226023 -0.128505 0.000000
-0.041179 0.256718 0.000000
0.228534 -0.123985 0.000000
-0.036067 0.257486 0.000000
0.230953 -0.119417 0.000000
-0.030940 0.258152 0.000000
0.233282 -0.114802 0.000000
-0.025802 0.258717 0.000000
0.235519 -0.110141 0.000000
-0.020654 0.259178 0.000000
0.237662 -0.105436 0.000000
-0.015498 0.259538 0.000000
0.239711 -0.100690 0.000000
-0.010336 0.259794 0.000000
0.241666 -0.095904 0.000000
-0.005169 0.259949 0.000000
0.243525 -0.091081 0.000000
0.000000 0.260000 0.000000
0.245288 -0.086221 0.000000
0.005169 0.259949 0.000000
0.246953 -0.081327 0.000000
0.010336 0.259794 0.000000
0.248521 -0.076401 0.000000
0.015498 0.259538 0.000000
0.249991 -0.071445 0.000000
0.020654 0.259178 0.000000
0.251363 -0.066459 0.000000
0.025802 0.258717 0.000000
0.252634 -0.061448 0.000000
0.030940 0.258152 0.000000
0.253806 -0.056412 0.000000
0.036067 0.257486 0.000000
0.254878 -0.051354 0.000000
0.041179 0.256718 0.000000
0.255849 -0.046275 0.000000
0.046275 0.255849 0.000000
0.256718 -0.041179 0.000000
0.051354 0.254878 0.000000
0.257486 -0.036067 0.000000
0.056412 0.253806 0.000000
0.258152 -0.030940 0.000000
0.061448 0.252634 0.000000
0.258717 -0.025802 0.000000
0.066459 0.251363 0.000000
0.259178 -0.020654 0.000000
0.071445 0.249991 0.000000
0.259538 -0.015498 0.000000
0.076401 0.248521 0.000000
0.259794 -0.010336 0.000000
0.081327 0.246953 0.000000
0.259949 -0.005169 0.000000
0.086221 0.245288 0.000000
0.260000 0.000000 0.000000
0.091081 0.243525 0.000000
0.259949 0.005169 0.000000
0.095904 0.241666 0.000000
0.259794 0.010336 0.000000
0.100690 0.239711 0.000000
0.259538 0.015498 0.000000
0.105436 0.237662 0.000000
0.259178 0.020654 0.000000
0.110141 0.235519 0.000000
0.258717 0.025802 0.000000
0.114802 0.233282 0.000000
0.258152 0.030940 0.000000
0.119417 0.230953 0.000000
0.257486 0.036067 0.000000
0.123985 0.228534 0.000000
0.256718 0.041179 0.000000
0.128505 0.226023 0.000000
0.255849 0.046275 0.000000
0.132973 0.223424 0.000000
0.254878 0.051354 0.000000
0.137389 0.220736 0.000000
0.253806 0.056412 0.000000
0.141751 0.217961 0.000000
0.252634 0.061448 0.000000
0.146056 0.215099 0.000000
0.251363 0.066459 0.000000
0.150304 0.212153 0.000000
0.249991 0.071445 0.000000
0.154492 0.209122 0.000000
0.248521 0.076401 0.000000
0.158620 0.206009 0.000000
0.246953 0.081327 0.000000
0.162684 0.202815 0.000000
0.245288 0.086221 0.000000
0.166684 0.199540 0.000000
0.243525 0.091081 0.000000
0.170619 0.196187 0.000000
0.241666 0.095904 0.000000
0.174486 0.192756 0.000000
0.239711 0.100690 0.000000
0.178283 0.189249 0.000000
0.237662 0.105436 0.000000
0.182011 0.185666 0.000000
0.235519 0.110141 0.000000
0.185666 0.182011 0.000000
0.233282 0.114802 0.000000
0.189249 0.178283 0.000000
0.230953 0.119417 0.000000
0.192756 0.174486 0.000000
0.228534 0.123985 0.000000
0.196187 0.170619 0.000000
0.226023 0.128505 0.000000
0.199540 0.166684 0.000000
0.223424 0.132973 0.000000
0.202815 0.162684 0.000000
0.220736 0.137389 0.000000
0.206009 0.158620 0.000000
0.217961 0.141751 0.000000
0.209122 0.154492 0.000000
0.215099 0.146056 0.000000
0.212153 0.150304 0.000000
-0.203462 -0.145269 0.000000
-0.209292 -0.136737 0.000000
-0.200416 -0.149443 0.000000
-0.212073 -0.132382 0.000000
-0.197285 -0.153553 0.000000
-0.214764 -0.127971 0.000000
-0.194070 -0.157598 0.000000
-0.217362 -0.123505 0.000000
-0.190771 -0.161575 0.000000
-0.219868 -0.118987 0.000000
-0.187391 -0.165483 0.000000
-0.222281 -0.114417 0.000000
-0.183931 -0.169320 0.000000
-0.224598 -0.109799 0.000000
-0.180392 -0.173086 0.000000
-0.226819 -0.105134 0.000000
-0.176777 -0.176777 0.000000
-0.228943 -0.100424 0.000000
-0.173086 -0.180392 0.000000
-0.230970 -0.095671 0.000000
-0.169320 -0.183931 0.000000
-0.232898 -0.090877 0.000000
-0.165483 -0.187391 0.000000
-0.234726 -0.086044 0.000000
-0.161575 -0.190771 0.000000
-0.236454 -0.081175 0.000000
-0.157598 -0.194070 0.000000
-0.238081 -0.076271 0.000000
-0.153553 -0.197285 0.000000
-0.239607 -0.071334 0.000000
-0.149443 -0.200416 0.000000
-0.241030 -0.066366 0.000000
-0.145269 -0.203462 0.000000
-0.242350 -0.061370 0.000000
-0.141033 -0.206421 0.000000
[...]
POINT_DATA 1240
SCALARS u1 float
LOOKUP_TABLE default
-2e-06
-2e-06
-2e-06
-2e-06
-2e-06
-2e-06
-2e-06
-2e-06
-1e-06
-1e-06
-2e-06
-1e-06
-2e-06
-2e-06
-3e-06
-2e-06
-3e-06
-2e-06
-3e-06
-2e-06
-2e-06
-2e-06
-2e-06
-2e-06
-2e-06
-2e-06
-2e-06
-2e-06
-2e-06
-3e-06
-2e-06
-3e-06
-1e-06
-3e-06
-1e-06
-3e-06
-1e-06
-4e-06
-1e-06
-4e-06
-9e-07
-8e-07
-4e-06
-7e-07
-5e-06
-7e-07
-5e-06
-7e-07
-6e-06
-7e-07
-6e-06
-7e-07
-6e-06
-7e-07
-6e-06
-7e-07
-6e-06
-7e-07
-7e-06
-7e-07
-7e-06
-7e-07
-7e-06
-7e-06
-7e-07
-7e-06
-8e-07
-7e-06
-9e-07
-6e-06
-9e-07
-6e-06
-1e-06
-6e-06
-1e-06
-6e-06
-1e-06
-5e-06
-1e-06
-5e-06
-1e-06
-5e-06
-1e-06
-4e-06
-1e-06
-4e-06
-1e-06
-4e-06
-9e-07
-3e-06
-9e-07
-3e-06
-8e-07
-7e-07
-3e-06
-6e-07
-2e-06
-5e-07
-2e-06
-4e-07
-2e-06
-3e-07
-2e-06
-2e-07
-2e-06
-2e-07
-2e-06
-8e-08
-2e-06
-2e-08
-2e-06
3e-08
-2e-06
6e-08
-2e-06
-2e-06
7e-08
-2e-06
6e-08
-2e-06
3e-08
-2e-06
-1e-08
-2e-06
-7e-08
-2e-06
-1e-07
-2e-06
-2e-07
-3e-06
-3e-07
-3e-06
-3e-07
-3e-06
-4e-07
-3e-06
-4e-07
-3e-06
-4e-07
-3e-06
-4e-07
-3e-06
-4e-07
-3e-06
-4e-07
-3e-06
-4e-07
-4e-07
-2e-06
-4e-07
-2e-06
-4e-07
-2e-06
-3e-07
-2e-06
-2e-07
-2e-06
-2e-07
-2e-06
-3e-08
-1e-06
1e-07
-1e-06
3e-07
-1e-06
5e-07
-1e-06
-1e-06
7e-07
-1e-06
8e-07
-1e-06
1e-06
-1e-06
1e-06
-1e-06
1e-06
-1e-06
1e-06
-1e-06
1e-06
-1e-06
1e-06
-1e-06
1e-06
-1e-06
1e-06
-1e-06
1e-06
-1e-06
9e-07
-1e-06
7e-07
-2e-06
6e-07
-2e-06
4e-07
-2e-06
3e-07
2e-07
-2e-06
2e-07
-2e-06
1e-07
-2e-06
1e-07
-2e-06
2e-07
-2e-06
2e-07
-2e-06
3e-07
-1e-06
4e-07
-1e-06
5e-07
-1e-06
6e-07
-1e-06
7e-07
-1e-06
9e-07
-1e-06
1e-06
-9e-07
1e-06
-8e-07
2e-06
-7e-07
2e-06
-7e-07
2e-06
-6e-07
3e-06
-5e-07
3e-06
-5e-07
3e-06
-5e-07
4e-06
-5e-07
4e-06
-5e-07
4e-06
-6e-07
5e-06
-6e-07
5e-06
-7e-07
5e-06
-7e-07
5e-06
-8e-07
5e-06
-9e-07
5e-06
-9e-07
5e-06
-9e-07
5e-06
-9e-07
5e-06
-9e-07
5e-06
-9e-07
4e-06
-9e-07
4e-06
-9e-07
4e-06
-9e-07
4e-06
-9e-07
3e-06
-9e-07
3e-06
-8e-07
2e-06
-7e-07
2e-06
-6e-07
2e-06
-5e-07
1e-06
-3e-07
1e-06
-2e-07
9e-07
2e-08
7e-07
2e-07
5e-07
4e-07
4e-07
6e-07
3e-07
7e-07
1e-07
8e-07
6e-08
9e-07
-2e-08
9e-07
-9e-08
9e-07
-1e-07
9e-07
-2e-07
8e-07
-1e-07
7e-07
-9e-08
5e-07
-4e-09
4e-07
1e-07
2e-07
-2e-06
-2e-06
-2e-06
-1e-06
-2e-06
-1e-06
-2e-06
-1e-06
-2e-06
-2e-06
-2e-06
-2e-06
-2e-06
-2e-06
-2e-06
-2e-06
-3e-06
-2e-06
-2e-06
-2e-06
-2e-06
-2e-06
-2e-06
-2e-06
-2e-06
-3e-06
-2e-06
-3e-06
-2e-06
-3e-06
-2e-06
-3e-06
-1e-06
-4e-06
-1e-06
-4e-06
-1e-06
-5e-06
-1e-06
-5e-06
-9e-07
-5e-06
-8e-07
-6e-06
-7e-07
-6e-06
-6e-07
-6e-06
-6e-07
-6e-06
-6e-07
-7e-06
-5e-07
-7e-06
-5e-07
-7e-06
-5e-07
-7e-06
-4e-07
-7e-06
-4e-07
-7e-06
-4e-07
-7e-06
-4e-07
-6e-06
-4e-07
-6e-06
-4e-07
-6e-06
-4e-07
-6e-06
-4e-07
-5e-06
-5e-07
-5e-06
-5e-07
-5e-06
-5e-07
-4e-06
-5e-07
-4e-06
-5e-07
-4e-06
-5e-07
-3e-06
-5e-07
-3e-06
-5e-07
-3e-06
-5e-07
-3e-06
-5e-07
-2e-06
-5e-07
-2e-06
-5e-07
-2e-06
-5e-07
-2e-06
-5e-07
-2e-06
-5e-07
-2e-06
-5e-07
-2e-06
-6e-07
-2e-06
-6e-07
-2e-06
-6e-07
-2e-06
-6e-07
-2e-06
-7e-07
-2e-06
-7e-07
-2e-06
-7e-07
-2e-06
-7e-07
-2e-06
-7e-07
-2e-06
-7e-07
-3e-06
-6e-07
-3e-06
-6e-07
-3e-06
-6e-07
-3e-06
-6e-07
-3e-06
-5e-07
-3e-06
-5e-07
-3e-06
-5e-07
-3e-06
-4e-07
-3e-06
-4e-07
-2e-06
-3e-07
-2e-06
-1e-07
-2e-06
-9e-09
-2e-06
1e-07
-2e-06
3e-07
-2e-06
5e-07
-1e-06
7e-07
-1e-06
9e-07
-1e-06
1e-06
-1e-06
1e-06
-1e-06
1e-06
-1e-06
1e-06
-1e-06
1e-06
-1e-06
1e-06
-1e-06
1e-06
-1e-06
1e-06
-1e-06
1e-06
-9e-07
9e-07
-9e-07
7e-07
-9e-07
5e-07
-9e-07
4e-07
-9e-07
3e-07
-9e-07
2e-07
-1e-06
2e-07
-1e-06
1e-07
-1e-06
1e-07
-1e-06
2e-07
-1e-06
3e-07
-1e-06
3e-07
-1e-06
4e-07
-1e-06
5e-07
-1e-06
6e-07
-1e-06
8e-07
-1e-06
9e-07
-1e-06
1e-06
-1e-06
1e-06
-1e-06
2e-06
-1e-06
2e-06
-1e-06
2e-06
-1e-06
3e-06
-1e-06
3e-06
-1e-06
3e-06
-1e-06
4e-06
-1e-06
4e-06
-1e-06
4e-06
-1e-06
5e-06
-1e-06
5e-06
-1e-06
5e-06
-1e-06
5e-06
-1e-06
5e-06
-1e-06
5e-06
-1e-06
5e-06
-1e-06
5e-06
-1e-06
5e-06
-1e-06
5e-06
-1e-06
5e-06
-1e-06
4e-06
-9e-07
4e-06
-8e-07
4e-06
-7e-07
3e-06
-6e-07
3e-06
-5e-07
3e-06
-3e-07
2e-06
-1e-07
2e-06
6e-08
1e-06
2e-07
1e-06
4e-07
9e-07
6e-07
7e-07
7e-07
6e-07
8e-07
4e-07
9e-07
3e-07
9e-07
2e-07
9e-07
9e-08
8e-07
-3e-09
8e-07
-8e-08
7e-07
-1e-07
5e-07
-2e-07
4e-07
-1e-07
2e-07
-9e-08
-2e-08
9e-08
-2e-06
-2e-06
-2e-06
-2e-06
-2e-06
-2e-06
-2e-06
-2e-06
-2e-06
-2e-06
-2e-06
-1e-06
-1e-06
-2e-06
-2e-06
-1e-06
-1e-06
-1e-06
-2e-06
-2e-06
-1e-06
-1e-06
-2e-06
-2e-06
-2e-06
-2e-06
-2e-06
-3e-06
-2e-06
-2e-06
-3e-06
-3e-06
-2e-06
-2e-06
-3e-06
-2e-06
-2e-06
-2e-06
-2e-06
-2e-06
-2e-06
-2e-06
-2e-06
-2e-06
-2e-06
-2e-06
-2e-06
-2e-06
-2e-06
-2e-06
-2e-06
-2e-06
-2e-06
-2e-06
-2e-06
-2e-06
-3e-06
-3e-06
-2e-06
-2e-06
-3e-06
-3e-06
-2e-06
-1e-06
-3e-06
-3e-06
-1e-06
-1e-06
-3e-06
-4e-06
-1e-06
-1e-06
-4e-06
-4e-06
-1e-06
-1e-06
-4e-06
-4e-06
-1e-06
-9e-07
-8e-07
-5e-06
-5e-06
-9e-07
-8e-07
-5e-06
-5e-06
-8e-07
-7e-07
-5e-06
-5e-06
-7e-07
-7e-07
-6e-06
-6e-06
-7e-07
-7e-07
-6e-06
-6e-06
-6e-07
-6e-07
-6e-06
-6e-06
-6e-07
-6e-07
-6e-06
-6e-06
-6e-07
-6e-07
-7e-06
-7e-06
-6e-07
-6e-07
-7e-06
-7e-06
-5e-07
-6e-07
-7e-06
-7e-06
-5e-07
-6e-07
-7e-06
-7e-06
-7e-06
-5e-07
-6e-07
-7e-06
-7e-06
-5e-07
-7e-07
-7e-06
-6e-06
-5e-07
-7e-07
-6e-06
-6e-06
-6e-07
-8e-07
-6e-06
-6e-06
-6e-07
-8e-07
-6e-06
-6e-06
-6e-07
-8e-07
-6e-06
-6e-06
-6e-07
-9e-07
-5e-06
-5e-06
-7e-07
-9e-07
-5e-06
-5e-06
-7e-07
-9e-07
-5e-06
-4e-06
-7e-07
-9e-07
-4e-06
-4e-06
-7e-07
-9e-07
-4e-06
-4e-06
-7e-07
-8e-07
-4e-06
-3e-06
-7e-07
-8e-07
-3e-06
-3e-06
-6e-07
-7e-07
-3e-06
-3e-06
-6e-07
-7e-07
-6e-07
-3e-06
-3e-06
-6e-07
-6e-07
-3e-06
-2e-06
-5e-07
-5e-07
-2e-06
-2e-06
-5e-07
-4e-07
-2e-06
-2e-06
-5e-07
-4e-07
-2e-06
-2e-06
-4e-07
-3e-07
-2e-06
-2e-06
-4e-07
-3e-07
-2e-06
-2e-06
-4e-07
-2e-07
-2e-06
-2e-06
-4e-07
-2e-07
-2e-06
-2e-06
-4e-07
-2e-07
-2e-06
-2e-06
-4e-07
-2e-07
-2e-06
-2e-06
-2e-06
-4e-07
-2e-07
-2e-06
-2e-06
-4e-07
-2e-07
-2e-06
-2e-06
-4e-07
-2e-07
-2e-06
-2e-06
-4e-07
-3e-07
-2e-06
-2e-06
-5e-07
-3e-07
-2e-06
-2e-06
-5e-07
-3e-07
-2e-06
-2e-06
-5e-07
-4e-07
-2e-06
-3e-06
-5e-07
-4e-07
-3e-06
-3e-06
-6e-07
-4e-07
-3e-06
-3e-06
-5e-07
-5e-07
-3e-06
-3e-06
-5e-07
-5e-07
-3e-06
-3e-06
-5e-07
-5e-07
-3e-06
-3e-06
-5e-07
-5e-07
-3e-06
-3e-06
-5e-07
-5e-07
-3e-06
-3e-06
-5e-07
-4e-07
-3e-06
-3e-06
-4e-07
-4e-07
-4e-07
-3e-06
-2e-06
-4e-07
-4e-07
-2e-06
-2e-06
-3e-07
-3e-07
-2e-06
-2e-06
-2e-07
-2e-07
-2e-06
-2e-06
-1e-07
-1e-07
-2e-06
-2e-06
-8e-09
-2e-08
-2e-06
-2e-06
1e-07
1e-07
-2e-06
-1e-06
3e-07
3e-07
-1e-06
-1e-06
5e-07
5e-07
-1e-06
-1e-06
7e-07
7e-07
-1e-06
-1e-06
-1e-06
8e-07
8e-07
-1e-06
-1e-06
1e-06
1e-06
-1e-06
-1e-06
1e-06
1e-06
-1e-06
-1e-06
1e-06
1e-06
-1e-06
-1e-06
1e-06
1e-06
-1e-06
-1e-06
1e-06
1e-06
-1e-06
-1e-06
1e-06
1e-06
-1e-06
-1e-06
1e-06
1e-06
-1e-06
-1e-06
1e-06
1e-06
-1e-06
-1e-06
1e-06
1e-06
-1e-06
-1e-06
9e-07
9e-07
-1e-06
-1e-06
7e-07
7e-07
-1e-06
-1e-06
6e-07
6e-07
-1e-06
-1e-06
4e-07
4e-07
-1e-06
-1e-06
3e-07
3e-07
-1e-06
-1e-06
2e-07
2e-07
2e-07
-1e-06
-1e-06
1e-07
1e-07
-1e-06
-1e-06
1e-07
1e-07
-1e-06
-1e-06
1e-07
2e-07
-1e-06
-1e-06
2e-07
2e-07
-1e-06
-1e-06
3e-07
3e-07
-1e-06
-1e-06
3e-07
4e-07
-1e-06
-1e-06
4e-07
5e-07
-1e-06
-1e-06
5e-07
6e-07
-1e-06
-1e-06
7e-07
7e-07
-1e-06
-1e-06
8e-07
8e-07
-1e-06
-1e-06
-1e-06
1e-06
1e-06
-1e-06
-9e-07
1e-06
1e-06
-1e-06
-9e-07
1e-06
2e-06
-1e-06
-8e-07
2e-06
2e-06
-9e-07
-8e-07
2e-06
2e-06
-9e-07
-7e-07
2e-06
2e-06
-9e-07
-7e-07
3e-06
3e-06
-9e-07
-7e-07
3e-06
3e-06
-9e-07
-7e-07
3e-06
4e-06
-9e-07
-7e-07
4e-06
4e-06
-1e-06
-8e-07
4e-06
4e-06
-1e-06
-8e-07
4e-06
4e-06
-1e-06
-8e-07
5e-06
5e-06
-1e-06
-9e-07
5e-06
5e-06
-1e-06
-9e-07
5e-06
5e-06
5e-06
-1e-06
-1e-06
5e-06
5e-06
-1e-06
-1e-06
5e-06
5e-06
-1e-06
-1e-06
5e-06
5e-06
-1e-06
-1e-06
5e-06
5e-06
-1e-06
-1e-06
5e-06
5e-06
-1e-06
-1e-06
5e-06
5e-06
-1e-06
-1e-06
5e-06
4e-06
-1e-06
-9e-07
4e-06
4e-06
-9e-07
-9e-07
4e-06
4e-06
-9e-07
-9e-07
4e-06
3e-06
-8e-07
-8e-07
3e-06
3e-06
-7e-07
-8e-07
3e-06
3e-06
-6e-07
-7e-07
3e-06
2e-06
-5e-07
-6e-07
2e-06
2e-06
-3e-07
-5e-07
2e-06
2e-06
-1e-07
-3e-07
2e-06
1e-06
4e-08
-2e-07
1e-06
1e-06
2e-07
3e-08
1e-06
8e-07
4e-07
2e-07
8e-07
6e-07
6e-07
4e-07
6e-07
5e-07
7e-07
6e-07
4e-07
3e-07
8e-07
7e-07
3e-07
2e-07
9e-07
8e-07
2e-07
1e-07
9e-07
9e-07
1e-07
3e-08
9e-07
9e-07
1e-08
-5e-08
8e-07
9e-07
-7e-08
-1e-07
8e-07
9e-07
-1e-07
-1e-07
7e-07
8e-07
-2e-07
-2e-07
5e-07
7e-07
-1e-07
-1e-07
4e-07
5e-07
-9e-08
-9e-08
2e-07
-1e-08
1e-07
4e-07
-1e-08
2e-07
1e-07
SCALARS u2 float
LOOKUP_TABLE default
-4e-07
-6e-07
-3e-07
-6e-07
-2e-07
-7e-07
-1e-07
-9e-07
-1e-07
-7e-08
-1e-06
-6e-08
-1e-06
-5e-08
-1e-06
-5e-08
-2e-06
-4e-08
-2e-06
-5e-08
-2e-06
-6e-08
-2e-06
-8e-08
-2e-06
-1e-07
-2e-06
-2e-07
-2e-06
-2e-07
-2e-06
-3e-07
-1e-06
-3e-07
-1e-06
-4e-07
-1e-06
-5e-07
-9e-07
-5e-07
-8e-07
-7e-07
-5e-07
-6e-07
-5e-07
-6e-07
-5e-07
-6e-07
-5e-07
-6e-07
-4e-07
-7e-07
-4e-07
-8e-07
-3e-07
-8e-07
-2e-07
-9e-07
-1e-07
-1e-06
-5e-08
-1e-06
5e-08
1e-07
-1e-06
2e-07
-2e-06
3e-07
-2e-06
4e-07
-2e-06
5e-07
-2e-06
5e-07
-3e-06
6e-07
-3e-06
6e-07
-3e-06
6e-07
-4e-06
6e-07
-4e-06
6e-07
-4e-06
6e-07
-5e-06
5e-07
-5e-06
5e-07
-5e-06
4e-07
-5e-06
-5e-06
3e-07
-6e-06
3e-07
-6e-06
2e-07
-6e-06
2e-07
-5e-06
2e-07
-5e-06
2e-07
-5e-06
2e-07
-5e-06
2e-07
-5e-06
2e-07
-4e-06
2e-07
-4e-06
2e-07
3e-07
-4e-06
3e-07
-3e-06
4e-07
-3e-06
5e-07
-3e-06
6e-07
-2e-06
8e-07
-2e-06
1e-06
-2e-06
1e-06
-1e-06
1e-06
-1e-06
2e-06
-1e-06
2e-06
-8e-07
2e-06
-7e-07
2e-06
-6e-07
2e-06
-5e-07
2e-06
-4e-07
2e-06
-4e-07
-3e-07
2e-06
-3e-07
2e-06
-3e-07
2e-06
-4e-07
2e-06
-5e-07
2e-06
-6e-07
1e-06
-7e-07
1e-06
-9e-07
1e-06
-1e-06
1e-06
-1e-06
1e-06
1e-06
-1e-06
1e-06
-1e-06
1e-06
-1e-06
1e-06
-1e-06
1e-06
-1e-06
1e-06
-1e-06
1e-06
-1e-06
2e-06
-1e-06
2e-06
-9e-07
2e-06
-7e-07
2e-06
-5e-07
2e-06
-3e-07
3e-06
-1e-07
3e-06
3e-08
3e-06
2e-07
4e-06
3e-07
3e-07
4e-06
4e-07
4e-06
4e-07
5e-06
4e-07
5e-06
5e-07
5e-06
5e-07
6e-06
5e-07
6e-06
5e-07
6e-06
5e-07
6e-06
5e-07
6e-06
4e-07
6e-06
4e-07
6e-06
3e-07
6e-06
3e-07
6e-06
2e-07
6e-06
2e-07
6e-06
1e-07
5e-06
6e-08
5e-06
3e-08
5e-06
3e-08
4e-06
4e-08
4e-06
7e-08
4e-06
1e-07
3e-06
2e-07
3e-06
3e-07
3e-06
3e-07
2e-06
4e-07
2e-06
5e-07
2e-06
6e-07
2e-06
7e-07
2e-06
8e-07
2e-06
9e-07
2e-06
1e-06
1e-06
1e-06
1e-06
1e-06
1e-06
1e-06
1e-06
1e-06
1e-06
1e-06
1e-06
1e-06
1e-06
1e-06
1e-06
1e-06
2e-06
1e-06
2e-06
1e-06
2e-06
9e-07
2e-06
9e-07
2e-06
8e-07
2e-06
8e-07
2e-06
7e-07
2e-06
7e-07
2e-06
7e-07
2e-06
7e-07
2e-06
7e-07
2e-06
7e-07
2e-06
7e-07
2e-06
7e-07
2e-06
8e-07
2e-06
8e-07
1e-06
9e-07
1e-06
1e-06
1e-06
-8e-07
-5e-07
-1e-06
-3e-07
-1e-06
-2e-07
-1e-06
-1e-07
-1e-06
-4e-08
-2e-06
9e-09
-2e-06
4e-08
-2e-06
8e-08
-2e-06
1e-07
-2e-06
1e-07
-2e-06
2e-07
-2e-06
2e-07
-1e-06
2e-07
-1e-06
2e-07
-1e-06
2e-07
-1e-06
2e-07
-9e-07
2e-07
-8e-07
2e-07
-7e-07
2e-07
-6e-07
1e-07
-6e-07
1e-07
-6e-07
9e-08
-6e-07
7e-08
-7e-07
5e-08
-8e-07
5e-08
-9e-07
5e-08
-1e-06
5e-08
-1e-06
6e-08
-1e-06
6e-08
-1e-06
6e-08
-2e-06
7e-08
-2e-06
7e-08
-2e-06
7e-08
-2e-06
7e-08
-3e-06
6e-08
-3e-06
4e-08
-3e-06
1e-08
-4e-06
-1e-08
-4e-06
-4e-08
-5e-06
-6e-08
-5e-06
-7e-08
-5e-06
-8e-08
-5e-06
-8e-08
-5e-06
-7e-08
-6e-06
-5e-08
-6e-06
-3e-08
-6e-06
-4e-09
-6e-06
2e-08
-6e-06
6e-08
-5e-06
9e-08
-5e-06
1e-07
-5e-06
2e-07
-5e-06
2e-07
-4e-06
3e-07
-4e-06
4e-07
-4e-06
5e-07
-3e-06
7e-07
-3e-06
8e-07
-3e-06
1e-06
-2e-06
1e-06
-2e-06
1e-06
-2e-06
2e-06
-1e-06
2e-06
-1e-06
2e-06
-1e-06
2e-06
-9e-07
2e-06
-8e-07
2e-06
-6e-07
2e-06
-6e-07
2e-06
-5e-07
2e-06
-4e-07
2e-06
-3e-07
2e-06
-3e-07
1e-06
-3e-07
1e-06
-4e-07
1e-06
-5e-07
1e-06
-6e-07
1e-06
-7e-07
1e-06
-8e-07
1e-06
-1e-06
1e-06
-1e-06
1e-06
-1e-06
1e-06
-1e-06
1e-06
-1e-06
1e-06
-1e-06
1e-06
-1e-06
2e-06
-1e-06
2e-06
-1e-06
2e-06
-1e-06
2e-06
-9e-07
2e-06
-7e-07
3e-06
-5e-07
3e-06
-3e-07
3e-06
-2e-07
4e-06
4e-09
4e-06
1e-07
4e-06
3e-07
5e-06
4e-07
5e-06
4e-07
5e-06
5e-07
6e-06
5e-07
6e-06
6e-07
6e-06
6e-07
6e-06
6e-07
6e-06
7e-07
6e-06
7e-07
6e-06
7e-07
6e-06
7e-07
6e-06
7e-07
6e-06
7e-07
6e-06
7e-07
5e-06
7e-07
5e-06
7e-07
5e-06
7e-07
5e-06
7e-07
4e-06
6e-07
4e-06
6e-07
3e-06
6e-07
3e-06
6e-07
3e-06
6e-07
2e-06
6e-07
2e-06
6e-07
2e-06
6e-07
2e-06
6e-07
2e-06
6e-07
2e-06
6e-07
2e-06
6e-07
1e-06
6e-07
1e-06
6e-07
1e-06
6e-07
1e-06
6e-07
1e-06
5e-07
1e-06
5e-07
1e-06
5e-07
1e-06
5e-07
2e-06
4e-07
2e-06
4e-07
2e-06
5e-07
2e-06
5e-07
2e-06
5e-07
2e-06
5e-07
2e-06
5e-07
2e-06
6e-07
2e-06
6e-07
2e-06
6e-07
2e-06
7e-07
2e-06
7e-07
2e-06
8e-07
2e-06
9e-07
2e-06
1e-06
2e-06
1e-06
1e-06
1e-06
-5e-07
-6e-07
-6e-07
-5e-07
-3e-07
-8e-07
-8e-07
-3e-07
-2e-07
-1e-06
-9e-07
-2e-07
-1e-07
-1e-06
-1e-06
-1e-07
-9e-08
-6e-08
-1e-06
-1e-06
-7e-08
-4e-08
-1e-06
-1e-06
-2e-08
-2e-08
-2e-06
-2e-06
6e-09
-1e-08
-2e-06
-2e-06
3e-08
1e-09
-2e-06
-2e-06
5e-08
6e-09
-2e-06
-2e-06
7e-08
4e-09
-2e-06
-2e-06
8e-08
-4e-09
-2e-06
-2e-06
8e-08
-2e-08
-2e-06
-2e-06
8e-08
-5e-08
-1e-06
-1e-06
8e-08
-8e-08
-1e-06
-1e-06
6e-08
-1e-07
-1e-06
-1e-06
4e-08
-2e-07
-1e-06
-1e-06
1e-08
-2e-07
-9e-07
-9e-07
-2e-08
-3e-07
-8e-07
-8e-07
-5e-08
-3e-07
-7e-07
-7e-07
-6e-07
-7e-08
-3e-07
-6e-07
-6e-07
-9e-08
-3e-07
-6e-07
-6e-07
-1e-07
-3e-07
-6e-07
-6e-07
-1e-07
-3e-07
-7e-07
-7e-07
-1e-07
-3e-07
-7e-07
-7e-07
-9e-08
-2e-07
-8e-07
-8e-07
-7e-08
-2e-07
-9e-07
-9e-07
-4e-08
-1e-07
-1e-06
-1e-06
-4e-09
-4e-08
-1e-06
-1e-06
3e-08
3e-08
-1e-06
-1e-06
1e-07
7e-08
2e-07
-1e-06
-1e-06
1e-07
2e-07
-2e-06
-2e-06
1e-07
3e-07
-2e-06
-2e-06
2e-07
3e-07
-2e-06
-2e-06
2e-07
4e-07
-3e-06
-3e-06
2e-07
4e-07
-3e-06
-3e-06
2e-07
4e-07
-3e-06
-3e-06
2e-07
4e-07
-4e-06
-4e-06
2e-07
4e-07
-4e-06
-4e-06
2e-07
4e-07
-4e-06
-4e-06
2e-07
4e-07
-5e-06
-5e-06
1e-07
3e-07
-5e-06
-5e-06
1e-07
3e-07
-5e-06
-5e-06
9e-08
2e-07
-5e-06
-5e-06
7e-08
2e-07
-5e-06
-5e-06
-6e-06
6e-08
2e-07
-6e-06
-6e-06
6e-08
2e-07
-6e-06
-6e-06
6e-08
1e-07
-6e-06
-6e-06
7e-08
1e-07
-6e-06
-5e-06
9e-08
1e-07
-5e-06
-5e-06
1e-07
2e-07
-5e-06
-5e-06
1e-07
2e-07
-5e-06
-5e-06
2e-07
2e-07
-5e-06
-5e-06
2e-07
2e-07
-5e-06
-4e-06
2e-07
2e-07
-4e-06
-4e-06
3e-07
3e-07
3e-07
-4e-06
-4e-06
4e-07
4e-07
-3e-06
-3e-06
5e-07
5e-07
-3e-06
-3e-06
7e-07
7e-07
-3e-06
-2e-06
8e-07
8e-07
-2e-06
-2e-06
1e-06
1e-06
-2e-06
-2e-06
1e-06
1e-06
-2e-06
-2e-06
1e-06
1e-06
-1e-06
-1e-06
2e-06
2e-06
-1e-06
-1e-06
2e-06
2e-06
-1e-06
-1e-06
2e-06
2e-06
-9e-07
-8e-07
2e-06
2e-06
-8e-07
-7e-07
2e-06
2e-06
-7e-07
-6e-07
2e-06
2e-06
-6e-07
-5e-07
2e-06
2e-06
-5e-07
-4e-07
2e-06
2e-06
-4e-07
-4e-07
-3e-07
2e-06
2e-06
-3e-07
-3e-07
2e-06
2e-06
-3e-07
-3e-07
2e-06
2e-06
-3e-07
-4e-07
2e-06
2e-06
-4e-07
-5e-07
1e-06
1e-06
-5e-07
-6e-07
1e-06
1e-06
-6e-07
-7e-07
1e-06
1e-06
-7e-07
-8e-07
1e-06
1e-06
-8e-07
-1e-06
1e-06
1e-06
-1e-06
-1e-06
1e-06
1e-06
1e-06
-1e-06
-1e-06
1e-06
1e-06
-1e-06
-1e-06
1e-06
1e-06
-1e-06
-1e-06
1e-06
1e-06
-1e-06
-1e-06
1e-06
1e-06
-1e-06
-1e-06
1e-06
1e-06
-1e-06
-1e-06
1e-06
1e-06
-1e-06
-1e-06
2e-06
2e-06
-1e-06
-1e-06
2e-06
2e-06
-1e-06
-9e-07
2e-06
2e-06
-9e-07
-7e-07
2e-06
2e-06
-7e-07
-5e-07
2e-06
2e-06
-5e-07
-3e-07
3e-06
3e-06
-3e-07
-1e-07
3e-06
3e-06
-1e-07
1e-08
3e-06
4e-06
7e-09
1e-07
4e-06
4e-06
1e-07
3e-07
3e-07
4e-06
4e-06
3e-07
4e-07
5e-06
5e-06
4e-07
4e-07
5e-06
5e-06
4e-07
5e-07
5e-06
5e-06
5e-07
5e-07
5e-06
6e-06
5e-07
5e-07
6e-06
6e-06
5e-07
5e-07
6e-06
6e-06
6e-07
5e-07
6e-06
6e-06
6e-07
5e-07
6e-06
6e-06
6e-07
5e-07
6e-06
6e-06
6e-07
5e-07
6e-06
6e-06
6e-06
6e-07
5e-07
6e-06
6e-06
6e-07
5e-07
6e-06
6e-06
6e-07
4e-07
6e-06
6e-06
6e-07
4e-07
6e-06
6e-06
6e-07
3e-07
6e-06
5e-06
5e-07
3e-07
5e-06
5e-06
5e-07
3e-07
5e-06
5e-06
5e-07
3e-07
5e-06
4e-06
5e-07
2e-07
4e-06
4e-06
4e-07
3e-07
4e-06
4e-06
4e-07
3e-07
4e-06
3e-06
4e-07
3e-07
3e-06
3e-06
5e-07
4e-07
3e-06
3e-06
5e-07
4e-07
3e-06
2e-06
5e-07
5e-07
5e-07
2e-06
2e-06
6e-07
6e-07
2e-06
2e-06
6e-07
6e-07
2e-06
2e-06
6e-07
7e-07
2e-06
2e-06
7e-07
8e-07
2e-06
2e-06
7e-07
8e-07
2e-06
1e-06
7e-07
9e-07
1e-06
1e-06
8e-07
9e-07
1e-06
1e-06
8e-07
1e-06
1e-06
1e-06
8e-07
1e-06
1e-06
1e-06
8e-07
1e-06
1e-06
1e-06
8e-07
1e-06
1e-06
1e-06
7e-07
1e-06
1e-06
1e-06
7e-07
9e-07
1e-06
1e-06
7e-07
9e-07
2e-06
2e-06
7e-07
8e-07
2e-06
2e-06
6e-07
8e-07
2e-06
2e-06
6e-07
7e-07
2e-06
2e-06
6e-07
7e-07
2e-06
2e-06
6e-07
7e-07
2e-06
2e-06
6e-07
7e-07
2e-06
2e-06
6e-07
7e-07
2e-06
2e-06
6e-07
7e-07
2e-06
2e-06
6e-07
7e-07
2e-06
2e-06
6e-07
7e-07
2e-06
2e-06
7e-07
7e-07
2e-06
2e-06
7e-07
7e-07
2e-06
2e-06
7e-07
7e-07
2e-06
2e-06
8e-07
8e-07
2e-06
2e-06
9e-07
8e-07
2e-06
2e-06
1e-06
9e-07
1e-06
1e-06
1e-06
1e-06
1e-06
1e-06
1e-06
SCALARS strain_1 float
LOOKUP_TABLE default
-0.000002
-0.000003
-0.000001
-0.000001
-0.000005
-0.000003
-0.000002
-0.000002
-0.000004
-0.000005
-0.000002
-0.000005
-0.000005
-0.000004
-0.000007
-0.000006
-0.000010
-0.000005
-0.000014
-0.000003
-0.000019
-0.000003
-0.000023
-0.000001
-0.000029
0.000002
-0.000035
0.000004
-0.000043
0.000008
-0.000052
0.000012
-0.000060
0.000017
-0.000071
0.000026
-0.000081
0.000032
-0.000093
0.000041
-0.000107
-0.000120
0.000050
-0.000136
0.000063
-0.000153
0.000074
-0.000169
0.000087
-0.000188
0.000101
-0.000206
0.000117
-0.000225
0.000134
-0.000247
0.000151
-0.000268
0.000172
-0.000290
0.000191
-0.000313
0.000216
0.000237
-0.000337
0.000261
-0.000362
0.000287
-0.000386
0.000314
-0.000412
0.000341
-0.000438
0.000369
-0.000466
0.000398
-0.000493
0.000429
-0.000521
0.000461
-0.000549
0.000493
-0.000575
0.000524
-0.000605
0.000557
-0.000633
0.000592
-0.000662
0.000625
-0.000689
0.000659
-0.000716
-0.000745
0.000693
-0.000772
0.000729
-0.000800
0.000762
-0.000828
0.000797
-0.000854
0.000830
-0.000878
0.000864
-0.000904
0.000896
-0.000930
0.000929
-0.000951
0.000962
-0.000975
0.000992
-0.000997
0.001021
0.001051
-0.001017
0.001079
-0.001039
0.001108
-0.001055
0.001132
-0.001074
0.001156
-0.001092
0.001180
-0.001107
0.001201
-0.001121
0.001220
-0.001134
0.001238
-0.001145
0.001255
-0.001155
0.001270
-0.001165
0.001283
-0.001171
0.001296
-0.001177
0.001304
-0.001182
0.001311
-0.001187
0.001315
-0.001186
-0.001188
0.001321
-0.001187
0.001323
-0.001183
0.001322
-0.001179
0.001321
-0.001174
0.001319
-0.001166
0.001314
-0.001159
0.001307
-0.001150
0.001297
-0.001139
0.001287
-0.001127
0.001275
0.001261
-0.001113
0.001246
-0.001099
0.001229
-0.001084
0.001211
-0.001067
0.001193
-0.001049
0.001171
-0.001030
0.001149
-0.001011
0.001127
-0.000990
0.001103
-0.000968
0.001077
-0.000946
0.001051
-0.000924
0.001025
-0.000901
0.000998
-0.000877
0.000969
-0.000853
0.000941
-0.000827
0.000912
-0.000803
-0.000776
0.000883
-0.000750
0.000854
-0.000725
0.000824
-0.000699
0.000792
-0.000672
0.000764
-0.000647
0.000733
-0.000622
0.000704
-0.000595
0.000673
-0.000569
0.000644
-0.000543
0.000615
-0.000517
0.000587
-0.000492
0.000559
-0.000468
0.000530
-0.000443
0.000503
-0.000420
0.000475
-0.000396
0.000449
-0.000373
0.000423
-0.000351
0.000398
-0.000331
0.000374
-0.000309
0.000350
-0.000288
0.000326
-0.000269
0.000306
-0.000251
0.000283
-0.000233
0.000263
-0.000214
0.000245
-0.000197
0.000226
-0.000180
0.000206
-0.000166
0.000189
-0.000152
0.000172
-0.000138
0.000158
-0.000126
0.000142
-0.000112
0.000130
-0.000102
0.000117
-0.000091
0.000104
-0.000081
0.000093
-0.000070
0.000082
-0.000061
0.000072
-0.000055
0.000063
-0.000047
0.000054
-0.000040
0.000047
-0.000035
0.000040
-0.000029
0.000033
-0.000025
0.000029
-0.000020
0.000023
-0.000017
0.000018
-0.000014
0.000015
-0.000011
0.000013
-0.000008
0.000009
-0.000006
0.000006
-0.000005
0.000003
-0.000004
0.000003
-0.000002
0.000001
-0.000002
0.000001
-0.000001
0.000001
-0.000000
-0.000001
-0.000001
-0.000001
-0.000001
-0.000002
-0.000000
-0.000001
-0.000001
-0.000002
-0.000002
-0.000003
-0.000002
-0.000003
-0.000002
-0.000004
-0.000003
-0.000006
-0.000005
-0.000006
-0.000006
-0.000006
-0.000007
-0.000005
-0.000010
-0.000004
-0.000013
-0.000005
-0.000018
-0.000003
-0.000023
-0.000001
-0.000030
0.000002
-0.000036
0.000003
-0.000043
0.000008
-0.000052
0.000013
-0.000060
0.000018
-0.000072
0.000023
-0.000083
0.000032
-0.000095
0.000040
-0.000108
0.000049
-0.000122
0.000059
-0.000138
0.000073
-0.000152
0.000085
-0.000168
0.000099
-0.000187
0.000115
-0.000206
0.000130
-0.000226
0.000150
-0.000245
0.000169
-0.000266
0.000187
-0.000287
0.000208
-0.000311