# vtk DataFile Version 2.0
Generated volume Mesh
ASCII
DATASET UNSTRUCTURED_GRID
POINTS 1240 float
-0.212153 -0.150304 0.000000
-0.206421 -0.141033 0.000000
-0.215099 -0.146056 0.000000
-0.209122 -0.154492 0.000000
-0.217961 -0.141751 0.000000
-0.206009 -0.158620 0.000000
-0.220736 -0.137389 0.000000
-0.202815 -0.162684 0.000000
-0.223424 -0.132973 0.000000
-0.226023 -0.128505 0.000000
-0.199540 -0.166684 0.000000
-0.228534 -0.123985 0.000000
-0.196187 -0.170619 0.000000
-0.230953 -0.119417 0.000000
-0.192756 -0.174486 0.000000
-0.233282 -0.114802 0.000000
-0.189249 -0.178283 0.000000
-0.235519 -0.110141 0.000000
-0.185666 -0.182011 0.000000
-0.237662 -0.105436 0.000000
-0.182011 -0.185666 0.000000
-0.239711 -0.100690 0.000000
-0.178283 -0.189249 0.000000
-0.241666 -0.095904 0.000000
-0.174486 -0.192756 0.000000
-0.243525 -0.091081 0.000000
-0.170619 -0.196187 0.000000
-0.245288 -0.086221 0.000000
-0.166684 -0.199540 0.000000
-0.246953 -0.081327 0.000000
-0.162684 -0.202815 0.000000
-0.248521 -0.076401 0.000000
-0.158620 -0.206009 0.000000
-0.249991 -0.071445 0.000000
-0.154492 -0.209122 0.000000
-0.251363 -0.066459 0.000000
-0.150304 -0.212153 0.000000
-0.252634 -0.061448 0.000000
-0.146056 -0.215099 0.000000
-0.253806 -0.056412 0.000000
-0.141751 -0.217961 0.000000
-0.137389 -0.220736 0.000000
-0.254878 -0.051354 0.000000
-0.132973 -0.223424 0.000000
-0.255849 -0.046275 0.000000
-0.128505 -0.226023 0.000000
-0.256718 -0.041179 0.000000
-0.123985 -0.228534 0.000000
-0.257486 -0.036067 0.000000
-0.119417 -0.230953 0.000000
-0.258152 -0.030940 0.000000
-0.114802 -0.233282 0.000000
-0.258717 -0.025802 0.000000
-0.110141 -0.235519 0.000000
-0.259178 -0.020654 0.000000
-0.105436 -0.237662 0.000000
-0.259538 -0.015498 0.000000
-0.100690 -0.239711 0.000000
-0.259794 -0.010336 0.000000
-0.095904 -0.241666 0.000000
-0.259949 -0.005169 0.000000
-0.091081 -0.243525 0.000000
-0.260000 0.000000 0.000000
-0.259949 0.005169 0.000000
-0.086221 -0.245288 0.000000
-0.259794 0.010336 0.000000
-0.081327 -0.246953 0.000000
-0.259538 0.015498 0.000000
-0.076401 -0.248521 0.000000
-0.259178 0.020654 0.000000
-0.071445 -0.249991 0.000000
-0.258717 0.025802 0.000000
-0.066459 -0.251363 0.000000
-0.258152 0.030940 0.000000
-0.061448 -0.252634 0.000000
-0.257486 0.036067 0.000000
-0.056412 -0.253806 0.000000
-0.256718 0.041179 0.000000
-0.051354 -0.254878 0.000000
-0.255849 0.046275 0.000000
-0.046275 -0.255849 0.000000
-0.254878 0.051354 0.000000
-0.041179 -0.256718 0.000000
-0.253806 0.056412 0.000000
-0.036067 -0.257486 0.000000
-0.252634 0.061448 0.000000
-0.030940 -0.258152 0.000000
-0.251363 0.066459 0.000000
-0.025802 -0.258717 0.000000
-0.249991 0.071445 0.000000
-0.020654 -0.259178 0.000000
-0.248521 0.076401 0.000000
-0.015498 -0.259538 0.000000
-0.010336 -0.259794 0.000000
-0.246953 0.081327 0.000000
-0.005169 -0.259949 0.000000
-0.245288 0.086221 0.000000
0.000000 -0.260000 0.000000
-0.243525 0.091081 0.000000
0.005169 -0.259949 0.000000
-0.241666 0.095904 0.000000
0.010336 -0.259794 0.000000
-0.239711 0.100690 0.000000
0.015498 -0.259538 0.000000
-0.237662 0.105436 0.000000
0.020654 -0.259178 0.000000
-0.235519 0.110141 0.000000
0.025802 -0.258717 0.000000
-0.233282 0.114802 0.000000
0.030940 -0.258152 0.000000
-0.230953 0.119417 0.000000
0.036067 -0.257486 0.000000
-0.228534 0.123985 0.000000
0.041179 -0.256718 0.000000
-0.226023 0.128505 0.000000
-0.223424 0.132973 0.000000
0.046275 -0.255849 0.000000
-0.220736 0.137389 0.000000
0.051354 -0.254878 0.000000
-0.217961 0.141751 0.000000
0.056412 -0.253806 0.000000
-0.215099 0.146056 0.000000
0.061448 -0.252634 0.000000
-0.212153 0.150304 0.000000
0.066459 -0.251363 0.000000
-0.209122 0.154492 0.000000
0.071445 -0.249991 0.000000
-0.206009 0.158620 0.000000
0.076401 -0.248521 0.000000
-0.202815 0.162684 0.000000
0.081327 -0.246953 0.000000
-0.199540 0.166684 0.000000
0.086221 -0.245288 0.000000
-0.196187 0.170619 0.000000
0.091081 -0.243525 0.000000
-0.192756 0.174486 0.000000
0.095904 -0.241666 0.000000
-0.189249 0.178283 0.000000
0.100690 -0.239711 0.000000
-0.185666 0.182011 0.000000
0.105436 -0.237662 0.000000
-0.182011 0.185666 0.000000
0.110141 -0.235519 0.000000
-0.178283 0.189249 0.000000
0.114802 -0.233282 0.000000
-0.174486 0.192756 0.000000
0.119417 -0.230953 0.000000
0.123985 -0.228534 0.000000
-0.170619 0.196187 0.000000
0.128505 -0.226023 0.000000
-0.166684 0.199540 0.000000
0.132973 -0.223424 0.000000
-0.162684 0.202815 0.000000
0.137389 -0.220736 0.000000
-0.158620 0.206009 0.000000
0.141751 -0.217961 0.000000
-0.154492 0.209122 0.000000
0.146056 -0.215099 0.000000
-0.150304 0.212153 0.000000
0.150304 -0.212153 0.000000
-0.146056 0.215099 0.000000
0.154492 -0.209122 0.000000
-0.141751 0.217961 0.000000
0.158620 -0.206009 0.000000
-0.137389 0.220736 0.000000
0.162684 -0.202815 0.000000
-0.132973 0.223424 0.000000
-0.128505 0.226023 0.000000
0.166684 -0.199540 0.000000
-0.123985 0.228534 0.000000
0.170619 -0.196187 0.000000
-0.119417 0.230953 0.000000
0.174486 -0.192756 0.000000
-0.114802 0.233282 0.000000
0.178283 -0.189249 0.000000
-0.110141 0.235519 0.000000
0.182011 -0.185666 0.000000
-0.105436 0.237662 0.000000
0.185666 -0.182011 0.000000
-0.100690 0.239711 0.000000
0.189249 -0.178283 0.000000
-0.095904 0.241666 0.000000
0.192756 -0.174486 0.000000
-0.091081 0.243525 0.000000
0.196187 -0.170619 0.000000
-0.086221 0.245288 0.000000
0.199540 -0.166684 0.000000
-0.081327 0.246953 0.000000
0.202815 -0.162684 0.000000
-0.076401 0.248521 0.000000
0.206009 -0.158620 0.000000
-0.071445 0.249991 0.000000
0.209122 -0.154492 0.000000
-0.066459 0.251363 0.000000
0.212153 -0.150304 0.000000
-0.061448 0.252634 0.000000
0.215099 -0.146056 0.000000
-0.056412 0.253806 0.000000
0.217961 -0.141751 0.000000
0.220736 -0.137389 0.000000
-0.051354 0.254878 0.000000
0.223424 -0.132973 0.000000
-0.046275 0.255849 0.000000
0.226023 -0.128505 0.000000
-0.041179 0.256718 0.000000
0.228534 -0.123985 0.000000
-0.036067 0.257486 0.000000
0.230953 -0.119417 0.000000
-0.030940 0.258152 0.000000
0.233282 -0.114802 0.000000
-0.025802 0.258717 0.000000
0.235519 -0.110141 0.000000
-0.020654 0.259178 0.000000
0.237662 -0.105436 0.000000
-0.015498 0.259538 0.000000
0.239711 -0.100690 0.000000
-0.010336 0.259794 0.000000
0.241666 -0.095904 0.000000
-0.005169 0.259949 0.000000
0.243525 -0.091081 0.000000
0.000000 0.260000 0.000000
0.245288 -0.086221 0.000000
0.005169 0.259949 0.000000
0.246953 -0.081327 0.000000
0.010336 0.259794 0.000000
0.248521 -0.076401 0.000000
0.015498 0.259538 0.000000
0.249991 -0.071445 0.000000
0.020654 0.259178 0.000000
0.251363 -0.066459 0.000000
0.025802 0.258717 0.000000
0.252634 -0.061448 0.000000
0.030940 0.258152 0.000000
0.253806 -0.056412 0.000000
0.036067 0.257486 0.000000
0.254878 -0.051354 0.000000
0.041179 0.256718 0.000000
0.255849 -0.046275 0.000000
0.046275 0.255849 0.000000
0.256718 -0.041179 0.000000
0.051354 0.254878 0.000000
0.257486 -0.036067 0.000000
0.056412 0.253806 0.000000
0.258152 -0.030940 0.000000
0.061448 0.252634 0.000000
0.258717 -0.025802 0.000000
0.066459 0.251363 0.000000
0.259178 -0.020654 0.000000
0.071445 0.249991 0.000000
0.259538 -0.015498 0.000000
0.076401 0.248521 0.000000
0.259794 -0.010336 0.000000
0.081327 0.246953 0.000000
0.259949 -0.005169 0.000000
0.086221 0.245288 0.000000
0.260000 0.000000 0.000000
0.091081 0.243525 0.000000
0.259949 0.005169 0.000000
0.095904 0.241666 0.000000
0.259794 0.010336 0.000000
0.100690 0.239711 0.000000
0.259538 0.015498 0.000000
0.105436 0.237662 0.000000
0.259178 0.020654 0.000000
0.110141 0.235519 0.000000
0.258717 0.025802 0.000000
0.114802 0.233282 0.000000
0.258152 0.030940 0.000000
0.119417 0.230953 0.000000
0.257486 0.036067 0.000000
0.123985 0.228534 0.000000
0.256718 0.041179 0.000000
0.128505 0.226023 0.000000
0.255849 0.046275 0.000000
0.132973 0.223424 0.000000
0.254878 0.051354 0.000000
0.137389 0.220736 0.000000
0.253806 0.056412 0.000000
0.141751 0.217961 0.000000
0.252634 0.061448 0.000000
0.146056 0.215099 0.000000
0.251363 0.066459 0.000000
0.150304 0.212153 0.000000
0.249991 0.071445 0.000000
0.154492 0.209122 0.000000
0.248521 0.076401 0.000000
0.158620 0.206009 0.000000
0.246953 0.081327 0.000000
0.162684 0.202815 0.000000
0.245288 0.086221 0.000000
0.166684 0.199540 0.000000
0.243525 0.091081 0.000000
0.170619 0.196187 0.000000
0.241666 0.095904 0.000000
0.174486 0.192756 0.000000
0.239711 0.100690 0.000000
0.178283 0.189249 0.000000
0.237662 0.105436 0.000000
0.182011 0.185666 0.000000
0.235519 0.110141 0.000000
0.185666 0.182011 0.000000
0.233282 0.114802 0.000000
0.189249 0.178283 0.000000
0.230953 0.119417 0.000000
0.192756 0.174486 0.000000
0.228534 0.123985 0.000000
0.196187 0.170619 0.000000
0.226023 0.128505 0.000000
0.199540 0.166684 0.000000
0.223424 0.132973 0.000000
0.202815 0.162684 0.000000
0.220736 0.137389 0.000000
0.206009 0.158620 0.000000
0.217961 0.141751 0.000000
0.209122 0.154492 0.000000
0.215099 0.146056 0.000000
0.212153 0.150304 0.000000
-0.203462 -0.145269 0.000000
-0.209292 -0.136737 0.000000
-0.200416 -0.149443 0.000000
-0.212073 -0.132382 0.000000
-0.197285 -0.153553 0.000000
-0.214764 -0.127971 0.000000
-0.194070 -0.157598 0.000000
-0.217362 -0.123505 0.000000
-0.190771 -0.161575 0.000000
-0.219868 -0.118987 0.000000
-0.187391 -0.165483 0.000000
-0.222281 -0.114417 0.000000
-0.183931 -0.169320 0.000000
-0.224598 -0.109799 0.000000
-0.180392 -0.173086 0.000000
-0.226819 -0.105134 0.000000
-0.176777 -0.176777 0.000000
-0.228943 -0.100424 0.000000
-0.173086 -0.180392 0.000000
-0.230970 -0.095671 0.000000
-0.169320 -0.183931 0.000000
-0.232898 -0.090877 0.000000
-0.165483 -0.187391 0.000000
-0.234726 -0.086044 0.000000
-0.161575 -0.190771 0.000000
-0.236454 -0.081175 0.000000
-0.157598 -0.194070 0.000000
-0.238081 -0.076271 0.000000
-0.153553 -0.197285 0.000000
-0.239607 -0.071334 0.000000
-0.149443 -0.200416 0.000000
-0.241030 -0.066366 0.000000
-0.145269 -0.203462 0.000000
-0.242350 -0.061370 0.000000
-0.141033 -0.206421 0.000000
[...]
POINT_DATA 1240
SCALARS u1 float
LOOKUP_TABLE default
-1e-05
-1e-05
-1e-05
-1e-05
-1e-05
-2e-05
-1e-05
-2e-05
-1e-05
-1e-05
-2e-05
-1e-05
-2e-05
-1e-05
-2e-05
-1e-05
-2e-05
-1e-05
-2e-05
-1e-05
-2e-05
-1e-05
-2e-05
-1e-05
-2e-05
-2e-05
-2e-05
-2e-05
-1e-05
-2e-05
-1e-05
-2e-05
-1e-05
-2e-05
-9e-06
-3e-05
-8e-06
-3e-05
-7e-06
-3e-05
-7e-06
-6e-06
-3e-05
-6e-06
-4e-05
-5e-06
-4e-05
-5e-06
-4e-05
-5e-06
-4e-05
-5e-06
-5e-05
-5e-06
-5e-05
-5e-06
-5e-05
-5e-06
-5e-05
-5e-06
-5e-05
-5e-06
-5e-05
-5e-05
-6e-06
-5e-05
-6e-06
-5e-05
-6e-06
-5e-05
-7e-06
-5e-05
-7e-06
-4e-05
-8e-06
-4e-05
-8e-06
-4e-05
-8e-06
-4e-05
-8e-06
-3e-05
-8e-06
-3e-05
-8e-06
-3e-05
-8e-06
-3e-05
-7e-06
-2e-05
-7e-06
-2e-05
-6e-06
-5e-06
-2e-05
-5e-06
-2e-05
-4e-06
-2e-05
-3e-06
-2e-05
-2e-06
-2e-05
-2e-06
-1e-05
-1e-06
-1e-05
-6e-07
-1e-05
-1e-07
-1e-05
2e-07
-1e-05
5e-07
-1e-05
-1e-05
5e-07
-1e-05
5e-07
-1e-05
3e-07
-2e-05
-7e-08
-2e-05
-5e-07
-2e-05
-1e-06
-2e-05
-1e-06
-2e-05
-2e-06
-2e-05
-2e-06
-2e-05
-3e-06
-2e-05
-3e-06
-2e-05
-3e-06
-2e-05
-3e-06
-2e-05
-3e-06
-2e-05
-3e-06
-2e-05
-3e-06
-3e-06
-2e-05
-3e-06
-2e-05
-3e-06
-2e-05
-2e-06
-1e-05
-2e-06
-1e-05
-1e-06
-1e-05
-2e-07
-1e-05
9e-07
-1e-05
2e-06
-1e-05
4e-06
-9e-06
-9e-06
5e-06
-9e-06
6e-06
-9e-06
7e-06
-9e-06
8e-06
-9e-06
9e-06
-9e-06
1e-05
-9e-06
1e-05
-9e-06
1e-05
-9e-06
9e-06
-1e-05
9e-06
-1e-05
8e-06
-1e-05
7e-06
-1e-05
6e-06
-1e-05
4e-06
-1e-05
3e-06
-1e-05
2e-06
2e-06
-1e-05
1e-06
-1e-05
1e-06
-1e-05
1e-06
-1e-05
1e-06
-1e-05
2e-06
-1e-05
2e-06
-1e-05
3e-06
-1e-05
4e-06
-1e-05
4e-06
-9e-06
5e-06
-8e-06
7e-06
-7e-06
8e-06
-7e-06
1e-05
-6e-06
1e-05
-6e-06
1e-05
-5e-06
2e-05
-4e-06
2e-05
-4e-06
2e-05
-4e-06
3e-05
-4e-06
3e-05
-4e-06
3e-05
-4e-06
3e-05
-4e-06
3e-05
-5e-06
4e-05
-5e-06
4e-05
-6e-06
4e-05
-6e-06
4e-05
-6e-06
4e-05
-7e-06
4e-05
-7e-06
4e-05
-7e-06
4e-05
-7e-06
4e-05
-7e-06
3e-05
-7e-06
3e-05
-7e-06
3e-05
-7e-06
3e-05
-7e-06
2e-05
-7e-06
2e-05
-6e-06
2e-05
-6e-06
2e-05
-5e-06
1e-05
-4e-06
1e-05
-3e-06
9e-06
-1e-06
7e-06
9e-08
5e-06
2e-06
4e-06
3e-06
3e-06
4e-06
2e-06
5e-06
1e-06
6e-06
4e-07
7e-06
-2e-07
7e-06
-7e-07
7e-06
-1e-06
7e-06
-1e-06
6e-06
-1e-06
5e-06
-7e-07
4e-06
-6e-08
3e-06
8e-07
2e-06
-1e-05
-1e-05
-1e-05
-1e-05
-1e-05
-1e-05
-2e-05
-1e-05
-2e-05
-1e-05
-2e-05
-1e-05
-2e-05
-1e-05
-2e-05
-1e-05
-2e-05
-1e-05
-2e-05
-2e-05
-2e-05
-2e-05
-2e-05
-2e-05
-2e-05
-2e-05
-2e-05
-2e-05
-1e-05
-2e-05
-1e-05
-3e-05
-1e-05
-3e-05
-1e-05
-3e-05
-8e-06
-3e-05
-7e-06
-4e-05
-7e-06
-4e-05
-6e-06
-4e-05
-5e-06
-4e-05
-5e-06
-5e-05
-4e-06
-5e-05
-4e-06
-5e-05
-4e-06
-5e-05
-4e-06
-5e-05
-3e-06
-5e-05
-3e-06
-5e-05
-3e-06
-5e-05
-3e-06
-5e-05
-3e-06
-5e-05
-3e-06
-5e-05
-3e-06
-4e-05
-3e-06
-4e-05
-3e-06
-4e-05
-3e-06
-4e-05
-4e-06
-3e-05
-4e-06
-3e-05
-4e-06
-3e-05
-4e-06
-3e-05
-4e-06
-2e-05
-4e-06
-2e-05
-4e-06
-2e-05
-4e-06
-2e-05
-4e-06
-2e-05
-4e-06
-2e-05
-4e-06
-2e-05
-4e-06
-2e-05
-4e-06
-1e-05
-4e-06
-1e-05
-4e-06
-1e-05
-4e-06
-1e-05
-4e-06
-1e-05
-5e-06
-1e-05
-5e-06
-1e-05
-5e-06
-1e-05
-5e-06
-2e-05
-5e-06
-2e-05
-5e-06
-2e-05
-5e-06
-2e-05
-5e-06
-2e-05
-5e-06
-2e-05
-5e-06
-2e-05
-5e-06
-2e-05
-4e-06
-2e-05
-4e-06
-2e-05
-4e-06
-2e-05
-4e-06
-2e-05
-3e-06
-2e-05
-3e-06
-2e-05
-2e-06
-2e-05
-1e-06
-2e-05
-6e-08
-1e-05
1e-06
-1e-05
2e-06
-1e-05
4e-06
-1e-05
5e-06
-1e-05
6e-06
-9e-06
8e-06
-9e-06
8e-06
-9e-06
9e-06
-8e-06
1e-05
-8e-06
1e-05
-8e-06
1e-05
-8e-06
9e-06
-7e-06
8e-06
-7e-06
8e-06
-7e-06
6e-06
-7e-06
5e-06
-7e-06
4e-06
-7e-06
3e-06
-7e-06
2e-06
-7e-06
2e-06
-7e-06
1e-06
-8e-06
1e-06
-8e-06
1e-06
-8e-06
1e-06
-8e-06
2e-06
-8e-06
2e-06
-8e-06
3e-06
-8e-06
4e-06
-8e-06
5e-06
-8e-06
6e-06
-8e-06
7e-06
-8e-06
8e-06
-8e-06
1e-05
-8e-06
1e-05
-8e-06
1e-05
-8e-06
2e-05
-8e-06
2e-05
-8e-06
2e-05
-9e-06
3e-05
-9e-06
3e-05
-9e-06
3e-05
-9e-06
3e-05
-9e-06
3e-05
-9e-06
4e-05
-9e-06
4e-05
-9e-06
4e-05
-9e-06
4e-05
-9e-06
4e-05
-9e-06
4e-05
-8e-06
4e-05
-8e-06
4e-05
-8e-06
4e-05
-8e-06
3e-05
-7e-06
3e-05
-7e-06
3e-05
-6e-06
3e-05
-6e-06
2e-05
-5e-06
2e-05
-4e-06
2e-05
-2e-06
2e-05
-1e-06
1e-05
4e-07
1e-05
2e-06
9e-06
3e-06
7e-06
4e-06
6e-06
5e-06
4e-06
6e-06
3e-06
7e-06
2e-06
7e-06
1e-06
7e-06
6e-07
6e-06
-5e-08
6e-06
-6e-07
5e-06
-1e-06
4e-06
-1e-06
3e-06
-1e-06
2e-06
-7e-07
-1e-07
6e-07
-1e-05
-1e-05
-1e-05
-1e-05
-1e-05
-1e-05
-1e-05
-1e-05
-1e-05
-1e-05
-2e-05
-1e-05
-1e-05
-2e-05
-2e-05
-1e-05
-1e-05
-1e-05
-2e-05
-2e-05
-1e-05
-1e-05
-2e-05
-2e-05
-1e-05
-1e-05
-2e-05
-2e-05
-1e-05
-1e-05
-2e-05
-2e-05
-1e-05
-1e-05
-2e-05
-2e-05
-1e-05
-1e-05
-2e-05
-2e-05
-1e-05
-1e-05
-2e-05
-2e-05
-2e-05
-2e-05
-2e-05
-2e-05
-2e-05
-2e-05
-2e-05
-2e-05
-2e-05
-2e-05
-2e-05
-1e-05
-2e-05
-2e-05
-1e-05
-1e-05
-2e-05
-2e-05
-1e-05
-1e-05
-2e-05
-2e-05
-1e-05
-1e-05
-3e-05
-3e-05
-1e-05
-8e-06
-3e-05
-3e-05
-8e-06
-7e-06
-3e-05
-3e-05
-7e-06
-7e-06
-6e-06
-3e-05
-4e-05
-6e-06
-6e-06
-4e-05
-4e-05
-6e-06
-5e-06
-4e-05
-4e-05
-5e-06
-5e-06
-4e-05
-4e-05
-5e-06
-5e-06
-4e-05
-5e-05
-5e-06
-5e-06
-5e-05
-5e-05
-4e-06
-5e-06
-5e-05
-5e-05
-4e-06
-5e-06
-5e-05
-5e-05
-4e-06
-5e-06
-5e-05
-5e-05
-4e-06
-5e-06
-5e-05
-5e-05
-4e-06
-5e-06
-5e-05
-5e-05
-5e-05
-4e-06
-5e-06
-5e-05
-5e-05
-4e-06
-5e-06
-5e-05
-5e-05
-4e-06
-5e-06
-5e-05
-5e-05
-4e-06
-6e-06
-5e-05
-5e-05
-4e-06
-6e-06
-5e-05
-4e-05
-5e-06
-6e-06
-4e-05
-4e-05
-5e-06
-7e-06
-4e-05
-4e-05
-5e-06
-7e-06
-4e-05
-4e-05
-5e-06
-7e-06
-4e-05
-3e-05
-5e-06
-7e-06
-3e-05
-3e-05
-5e-06
-6e-06
-3e-05
-3e-05
-5e-06
-6e-06
-3e-05
-3e-05
-5e-06
-6e-06
-2e-05
-2e-05
-5e-06
-5e-06
-2e-05
-2e-05
-5e-06
-5e-06
-5e-06
-2e-05
-2e-05
-4e-06
-4e-06
-2e-05
-2e-05
-4e-06
-4e-06
-2e-05
-2e-05
-4e-06
-3e-06
-2e-05
-2e-05
-3e-06
-3e-06
-2e-05
-2e-05
-3e-06
-2e-06
-2e-05
-1e-05
-3e-06
-2e-06
-1e-05
-1e-05
-3e-06
-2e-06
-1e-05
-1e-05
-3e-06
-1e-06
-1e-05
-1e-05
-3e-06
-1e-06
-1e-05
-1e-05
-3e-06
-1e-06
-1e-05
-1e-05
-1e-05
-3e-06
-1e-06
-1e-05
-1e-05
-3e-06
-1e-06
-1e-05
-1e-05
-3e-06
-2e-06
-1e-05
-2e-05
-3e-06
-2e-06
-2e-05
-2e-05
-4e-06
-2e-06
-2e-05
-2e-05
-4e-06
-3e-06
-2e-05
-2e-05
-4e-06
-3e-06
-2e-05
-2e-05
-4e-06
-3e-06
-2e-05
-2e-05
-4e-06
-3e-06
-2e-05
-2e-05
-4e-06
-3e-06
-2e-05
-2e-05
-4e-06
-4e-06
-2e-05
-2e-05
-4e-06
-4e-06
-2e-05
-2e-05
-4e-06
-3e-06
-2e-05
-2e-05
-4e-06
-3e-06
-2e-05
-2e-05
-4e-06
-3e-06
-2e-05
-2e-05
-3e-06
-3e-06
-3e-06
-2e-05
-2e-05
-3e-06
-3e-06
-2e-05
-2e-05
-2e-06
-2e-06
-2e-05
-2e-05
-2e-06
-2e-06
-2e-05
-1e-05
-1e-06
-1e-06
-1e-05
-1e-05
-5e-08
-1e-07
-1e-05
-1e-05
1e-06
1e-06
-1e-05
-1e-05
2e-06
2e-06
-1e-05
-1e-05
4e-06
4e-06
-1e-05
-1e-05
5e-06
5e-06
-1e-05
-9e-06
-9e-06
6e-06
6e-06
-9e-06
-9e-06
7e-06
7e-06
-9e-06
-9e-06
8e-06
8e-06
-9e-06
-9e-06
9e-06
9e-06
-8e-06
-9e-06
1e-05
1e-05
-8e-06
-9e-06
1e-05
1e-05
-8e-06
-9e-06
1e-05
1e-05
-8e-06
-9e-06
9e-06
9e-06
-8e-06
-9e-06
9e-06
9e-06
-8e-06
-9e-06
8e-06
8e-06
-8e-06
-9e-06
7e-06
7e-06
-8e-06
-1e-05
5e-06
5e-06
-8e-06
-1e-05
4e-06
4e-06
-8e-06
-1e-05
3e-06
3e-06
-9e-06
-1e-05
2e-06
2e-06
-9e-06
-1e-05
2e-06
2e-06
1e-06
-9e-06
-1e-05
1e-06
1e-06
-9e-06
-1e-05
1e-06
1e-06
-9e-06
-1e-05
1e-06
1e-06
-9e-06
-1e-05
1e-06
2e-06
-9e-06
-1e-05
2e-06
2e-06
-9e-06
-1e-05
3e-06
3e-06
-9e-06
-1e-05
3e-06
3e-06
-9e-06
-9e-06
4e-06
4e-06
-9e-06
-9e-06
5e-06
5e-06
-8e-06
-8e-06
6e-06
6e-06
-8e-06
-8e-06
-7e-06
7e-06
8e-06
-8e-06
-7e-06
9e-06
9e-06
-8e-06
-7e-06
1e-05
1e-05
-7e-06
-6e-06
1e-05
1e-05
-7e-06
-6e-06
2e-05
2e-05
-7e-06
-6e-06
2e-05
2e-05
-7e-06
-5e-06
2e-05
2e-05
-7e-06
-5e-06
2e-05
2e-05
-7e-06
-5e-06
3e-05
3e-05
-7e-06
-6e-06
3e-05
3e-05
-7e-06
-6e-06
3e-05
3e-05
-8e-06
-6e-06
3e-05
3e-05
-8e-06
-6e-06
4e-05
4e-05
-8e-06
-7e-06
4e-05
4e-05
-8e-06
-7e-06
4e-05
4e-05
4e-05
-8e-06
-7e-06
4e-05
4e-05
-8e-06
-7e-06
4e-05
4e-05
-8e-06
-8e-06
4e-05
4e-05
-8e-06
-8e-06
4e-05
4e-05
-8e-06
-8e-06
4e-05
4e-05
-8e-06
-7e-06
4e-05
3e-05
-8e-06
-7e-06
3e-05
3e-05
-7e-06
-7e-06
3e-05
3e-05
-7e-06
-7e-06
3e-05
3e-05
-7e-06
-7e-06
3e-05
3e-05
-6e-06
-6e-06
3e-05
2e-05
-6e-06
-6e-06
2e-05
2e-05
-5e-06
-5e-06
2e-05
2e-05
-4e-06
-5e-06
2e-05
2e-05
-2e-06
-4e-06
1e-05
1e-05
-1e-06
-3e-06
1e-05
1e-05
3e-07
-1e-06
1e-05
8e-06
2e-06
2e-07
8e-06
6e-06
3e-06
2e-06
6e-06
5e-06
4e-06
3e-06
5e-06
4e-06
5e-06
4e-06
3e-06
3e-06
6e-06
5e-06
2e-06
2e-06
7e-06
6e-06
1e-06
9e-07
7e-06
7e-06
7e-07
2e-07
7e-06
7e-06
7e-08
-4e-07
6e-06
7e-06
-5e-07
-8e-07
6e-06
6e-06
-1e-06
-1e-06
5e-06
6e-06
-1e-06
-1e-06
4e-06
5e-06
-1e-06
-1e-06
3e-06
4e-06
-7e-07
-7e-07
2e-06
-1e-07
7e-07
3e-06
-1e-07
2e-06
7e-07
SCALARS u2 float
LOOKUP_TABLE default
-3e-06
-5e-06
-2e-06
-4e-06
-2e-06
-6e-06
-1e-06
-7e-06
-8e-07
-5e-07
-8e-06
-4e-07
-1e-05
-4e-07
-1e-05
-4e-07
-1e-05
-4e-07
-1e-05
-4e-07
-1e-05
-5e-07
-1e-05
-6e-07
-1e-05
-9e-07
-1e-05
-1e-06
-1e-05
-2e-06
-1e-05
-2e-06
-1e-05
-3e-06
-9e-06
-3e-06
-8e-06
-3e-06
-7e-06
-4e-06
-6e-06
-5e-06
-4e-06
-5e-06
-4e-06
-4e-06
-4e-06
-5e-06
-4e-06
-5e-06
-3e-06
-5e-06
-3e-06
-6e-06
-2e-06
-6e-06
-2e-06
-7e-06
-1e-06
-8e-06
-4e-07
-9e-06
3e-07
1e-06
-1e-05
2e-06
-1e-05
2e-06
-1e-05
3e-06
-2e-05
4e-06
-2e-05
4e-06
-2e-05
4e-06
-2e-05
5e-06
-3e-05
5e-06
-3e-05
5e-06
-3e-05
5e-06
-3e-05
4e-06
-4e-05
4e-06
-4e-05
3e-06
-4e-05
3e-06
-4e-05
-4e-05
2e-06
-4e-05
2e-06
-4e-05
2e-06
-4e-05
2e-06
-4e-05
1e-06
-4e-05
1e-06
-4e-05
1e-06
-4e-05
1e-06
-4e-05
2e-06
-3e-05
2e-06
-3e-05
2e-06
2e-06
-3e-05
2e-06
-2e-05
3e-06
-2e-05
4e-06
-2e-05
5e-06
-2e-05
6e-06
-1e-05
7e-06
-1e-05
9e-06
-1e-05
1e-05
-9e-06
1e-05
-7e-06
1e-05
-6e-06
1e-05
-5e-06
1e-05
-5e-06
2e-05
-4e-06
2e-05
-3e-06
2e-05
-3e-06
-2e-06
2e-05
-2e-06
1e-05
-2e-06
1e-05
-3e-06
1e-05
-3e-06
1e-05
-4e-06
1e-05
-5e-06
9e-06
-6e-06
8e-06
-8e-06
8e-06
-9e-06
7e-06
7e-06
-1e-05
7e-06
-1e-05
8e-06
-1e-05
8e-06
-1e-05
9e-06
-1e-05
1e-05
-1e-05
1e-05
-9e-06
1e-05
-8e-06
1e-05
-7e-06
1e-05
-5e-06
2e-05
-4e-06
2e-05
-2e-06
2e-05
-9e-07
2e-05
3e-07
2e-05
1e-06
3e-05
2e-06
3e-06
3e-05
3e-06
3e-05
3e-06
4e-05
3e-06
4e-05
3e-06
4e-05
4e-06
4e-05
4e-06
4e-05
4e-06
5e-05
4e-06
5e-05
3e-06
5e-05
3e-06
5e-05
3e-06
5e-05
3e-06
5e-05
2e-06
5e-05
2e-06
4e-05
1e-06
4e-05
8e-07
4e-05
5e-07
4e-05
3e-07
4e-05
2e-07
3e-05
3e-07
3e-05
6e-07
3e-05
1e-06
3e-05
1e-06
2e-05
2e-06
2e-05
3e-06
2e-05
3e-06
2e-05
4e-06
2e-05
5e-06
1e-05
5e-06
1e-05
6e-06
1e-05
7e-06
1e-05
7e-06
1e-05
8e-06
1e-05
8e-06
1e-05
9e-06
1e-05
9e-06
1e-05
9e-06
1e-05
9e-06
1e-05
9e-06
1e-05
8e-06
1e-05
8e-06
1e-05
8e-06
1e-05
7e-06
2e-05
7e-06
2e-05
6e-06
2e-05
6e-06
2e-05
6e-06
2e-05
5e-06
2e-05
5e-06
2e-05
5e-06
2e-05
5e-06
2e-05
5e-06
2e-05
5e-06
1e-05
6e-06
1e-05
6e-06
1e-05
6e-06
1e-05
7e-06
9e-06
7e-06
8e-06
-6e-06
-3e-06
-7e-06
-2e-06
-9e-06
-2e-06
-1e-05
-9e-07
-1e-05
-3e-07
-1e-05
4e-08
-1e-05
3e-07
-1e-05
6e-07
-1e-05
8e-07
-1e-05
1e-06
-1e-05
1e-06
-1e-05
1e-06
-1e-05
1e-06
-1e-05
2e-06
-9e-06
2e-06
-8e-06
2e-06
-7e-06
2e-06
-6e-06
1e-06
-5e-06
1e-06
-5e-06
1e-06
-5e-06
8e-07
-5e-06
6e-07
-5e-06
5e-07
-5e-06
4e-07
-6e-06
3e-07
-7e-06
3e-07
-7e-06
4e-07
-8e-06
4e-07
-9e-06
4e-07
-1e-05
4e-07
-1e-05
5e-07
-1e-05
5e-07
-2e-05
5e-07
-2e-05
5e-07
-2e-05
4e-07
-2e-05
2e-07
-3e-05
6e-08
-3e-05
-1e-07
-3e-05
-3e-07
-3e-05
-5e-07
-4e-05
-6e-07
-4e-05
-6e-07
-4e-05
-6e-07
-4e-05
-6e-07
-4e-05
-4e-07
-4e-05
-3e-07
-4e-05
-5e-08
-4e-05
2e-07
-4e-05
4e-07
-4e-05
7e-07
-4e-05
1e-06
-4e-05
1e-06
-4e-05
2e-06
-3e-05
2e-06
-3e-05
3e-06
-3e-05
4e-06
-3e-05
5e-06
-2e-05
6e-06
-2e-05
8e-06
-2e-05
9e-06
-1e-05
1e-05
-1e-05
1e-05
-1e-05
1e-05
-9e-06
1e-05
-8e-06
1e-05
-7e-06
2e-05
-6e-06
2e-05
-5e-06
2e-05
-4e-06
1e-05
-3e-06
1e-05
-3e-06
1e-05
-3e-06
1e-05
-2e-06
1e-05
-2e-06
1e-05
-3e-06
9e-06
-3e-06
8e-06
-4e-06
8e-06
-5e-06
7e-06
-6e-06
7e-06
-7e-06
8e-06
-8e-06
8e-06
-9e-06
8e-06
-1e-05
9e-06
-1e-05
1e-05
-1e-05
1e-05
-1e-05
1e-05
-1e-05
1e-05
-9e-06
1e-05
-8e-06
2e-05
-7e-06
2e-05
-5e-06
2e-05
-4e-06
2e-05
-3e-06
2e-05
-1e-06
3e-05
6e-08
3e-05
1e-06
3e-05
2e-06
4e-05
3e-06
4e-05
3e-06
4e-05
4e-06
4e-05
4e-06
4e-05
4e-06
5e-05
5e-06
5e-05
5e-06
5e-05
5e-06
5e-05
5e-06
5e-05
5e-06
5e-05
6e-06
5e-05
6e-06
4e-05
6e-06
4e-05
6e-06
4e-05
5e-06
4e-05
5e-06
4e-05
5e-06
3e-05
5e-06
3e-05
5e-06
3e-05
5e-06
3e-05
5e-06
2e-05
4e-06
2e-05
5e-06
2e-05
5e-06
2e-05
5e-06
2e-05
5e-06
1e-05
5e-06
1e-05
5e-06
1e-05
5e-06
1e-05
5e-06
1e-05
5e-06
1e-05
5e-06
1e-05
4e-06
1e-05
4e-06
1e-05
4e-06
1e-05
4e-06
1e-05
4e-06
1e-05
3e-06
1e-05
3e-06
1e-05
3e-06
1e-05
3e-06
2e-05
4e-06
2e-05
4e-06
2e-05
4e-06
2e-05
4e-06
2e-05
4e-06
2e-05
4e-06
2e-05
5e-06
2e-05
5e-06
2e-05
5e-06
2e-05
6e-06
1e-05
7e-06
1e-05
7e-06
1e-05
8e-06
1e-05
1e-05
-3e-06
-5e-06
-5e-06
-3e-06
-2e-06
-6e-06
-6e-06
-2e-06
-2e-06
-7e-06
-7e-06
-2e-06
-1e-06
-9e-06
-8e-06
-1e-06
-7e-07
-5e-07
-1e-05
-1e-05
-5e-07
-3e-07
-1e-05
-1e-05
-2e-07
-2e-07
-1e-05
-1e-05
2e-08
-1e-07
-1e-05
-1e-05
2e-07
-1e-08
-1e-05
-1e-05
4e-07
2e-08
-1e-05
-1e-05
5e-07
7e-09
-1e-05
-1e-05
6e-07
-5e-08
-1e-05
-1e-05
6e-07
-2e-07
-1e-05
-1e-05
6e-07
-4e-07
-1e-05
-1e-05
5e-07
-6e-07
-1e-05
-1e-05
4e-07
-9e-07
-9e-06
-9e-06
3e-07
-1e-06
-8e-06
-8e-06
7e-08
-2e-06
-7e-06
-7e-06
-1e-07
-2e-06
-6e-06
-6e-06
-4e-07
-2e-06
-5e-06
-5e-06
-5e-06
-6e-07
-2e-06
-5e-06
-5e-06
-7e-07
-2e-06
-4e-06
-4e-06
-8e-07
-2e-06
-5e-06
-5e-06
-9e-07
-2e-06
-5e-06
-5e-06
-8e-07
-2e-06
-6e-06
-6e-06
-7e-07
-2e-06
-6e-06
-6e-06
-5e-07
-1e-06
-7e-06
-7e-06
-3e-07
-8e-07
-8e-06
-8e-06
-6e-08
-3e-07
-8e-06
-9e-06
2e-07
2e-07
-1e-05
-1e-05
8e-07
5e-07
1e-06
-1e-05
-1e-05
9e-07
2e-06
-1e-05
-1e-05
1e-06
2e-06
-1e-05
-1e-05
1e-06
2e-06
-2e-05
-2e-05
1e-06
3e-06
-2e-05
-2e-05
2e-06
3e-06
-2e-05
-2e-05
2e-06
3e-06
-2e-05
-3e-05
2e-06
3e-06
-3e-05
-3e-05
2e-06
3e-06
-3e-05
-3e-05
1e-06
3e-06
-3e-05
-3e-05
1e-06
3e-06
-3e-05
-4e-05
1e-06
2e-06
-4e-05
-4e-05
8e-07
2e-06
-4e-05
-4e-05
7e-07
2e-06
-4e-05
-4e-05
5e-07
2e-06
-4e-05
-4e-05
-4e-05
4e-07
1e-06
-4e-05
-4e-05
4e-07
1e-06
-4e-05
-4e-05
4e-07
1e-06
-4e-05
-4e-05
5e-07
1e-06
-4e-05
-4e-05
6e-07
1e-06
-4e-05
-4e-05
8e-07
1e-06
-4e-05
-4e-05
1e-06
1e-06
-4e-05
-4e-05
1e-06
1e-06
-4e-05
-3e-05
1e-06
2e-06
-3e-05
-3e-05
2e-06
2e-06
-3e-05
-3e-05
2e-06
2e-06
3e-06
-3e-05
-3e-05
3e-06
3e-06
-3e-05
-2e-05
4e-06
4e-06
-2e-05
-2e-05
5e-06
5e-06
-2e-05
-2e-05
6e-06
6e-06
-2e-05
-2e-05
7e-06
7e-06
-2e-05
-1e-05
9e-06
9e-06
-1e-05
-1e-05
1e-05
1e-05
-1e-05
-1e-05
1e-05
1e-05
-9e-06
-8e-06
1e-05
1e-05
-8e-06
-7e-06
1e-05
1e-05
-7e-06
-6e-06
1e-05
1e-05
-6e-06
-5e-06
2e-05
2e-05
-5e-06
-4e-06
2e-05
2e-05
-4e-06
-4e-06
2e-05
2e-05
-4e-06
-3e-06
1e-05
2e-05
-3e-06
-3e-06
-2e-06
1e-05
1e-05
-3e-06
-2e-06
1e-05
1e-05
-2e-06
-2e-06
1e-05
1e-05
-2e-06
-3e-06
1e-05
1e-05
-3e-06
-3e-06
1e-05
1e-05
-3e-06
-4e-06
9e-06
9e-06
-4e-06
-5e-06
8e-06
8e-06
-5e-06
-6e-06
8e-06
8e-06
-6e-06
-7e-06
7e-06
7e-06
-7e-06
-9e-06
7e-06
7e-06
7e-06
-8e-06
-9e-06
8e-06
8e-06
-9e-06
-1e-05
8e-06
8e-06
-1e-05
-1e-05
9e-06
9e-06
-1e-05
-1e-05
9e-06
9e-06
-1e-05
-1e-05
1e-05
1e-05
-1e-05
-1e-05
1e-05
1e-05
-1e-05
-9e-06
1e-05
1e-05
-9e-06
-8e-06
1e-05
1e-05
-8e-06
-7e-06
1e-05
1e-05
-7e-06
-5e-06
2e-05
2e-05
-5e-06
-4e-06
2e-05
2e-05
-4e-06
-2e-06
2e-05
2e-05
-2e-06
-1e-06
2e-05
2e-05
-1e-06
1e-07
3e-05
3e-05
7e-08
1e-06
3e-05
3e-05
1e-06
2e-06
2e-06
3e-05
3e-05
2e-06
3e-06
3e-05
3e-05
3e-06
3e-06
4e-05
4e-05
3e-06
3e-06
4e-05
4e-05
4e-06
4e-06
4e-05
4e-05
4e-06
4e-06
4e-05
4e-05
4e-06
4e-06
4e-05
4e-05
4e-06
4e-06
5e-05
5e-05
4e-06
4e-06
5e-05
5e-05
5e-06
4e-06
5e-05
5e-05
5e-06
4e-06
5e-05
5e-05
5e-05
5e-06
4e-06
5e-05
5e-05
5e-06
3e-06
5e-05
5e-05
5e-06
3e-06
4e-05
4e-05
4e-06
3e-06
4e-05
4e-05
4e-06
3e-06
4e-05
4e-05
4e-06
2e-06
4e-05
4e-05
4e-06
2e-06
4e-05
4e-05
4e-06
2e-06
3e-05
3e-05
3e-06
2e-06
3e-05
3e-05
3e-06
2e-06
3e-05
3e-05
3e-06
2e-06
3e-05
2e-05
3e-06
2e-06
2e-05
2e-05
4e-06
3e-06
2e-05
2e-05
4e-06
3e-06
2e-05
2e-05
4e-06
4e-06
4e-06
2e-05
2e-05
4e-06
4e-06
2e-05
1e-05
5e-06
5e-06
1e-05
1e-05
5e-06
5e-06
1e-05
1e-05
5e-06
6e-06
1e-05
1e-05
5e-06
6e-06
1e-05
1e-05
6e-06
7e-06
1e-05
1e-05
6e-06
7e-06
1e-05
1e-05
6e-06
7e-06
1e-05
1e-05
6e-06
7e-06
1e-05
1e-05
6e-06
7e-06
1e-05
1e-05
6e-06
7e-06
1e-05
1e-05
6e-06
7e-06
1e-05
1e-05
5e-06
7e-06
1e-05
1e-05
5e-06
7e-06
1e-05
1e-05
5e-06
6e-06
1e-05
1e-05
5e-06
6e-06
1e-05
1e-05
5e-06
6e-06
2e-05
2e-05
4e-06
5e-06
2e-05
2e-05
4e-06
5e-06
2e-05
2e-05
4e-06
5e-06
2e-05
2e-05
4e-06
5e-06
2e-05
2e-05
5e-06
5e-06
2e-05
2e-05
5e-06
5e-06
2e-05
2e-05
5e-06
5e-06
2e-05
2e-05
5e-06
5e-06
2e-05
2e-05
5e-06
5e-06
2e-05
2e-05
6e-06
6e-06
1e-05
1e-05
6e-06
6e-06
1e-05
1e-05
7e-06
6e-06
1e-05
1e-05
8e-06
7e-06
1e-05
8e-06
1e-05
1e-05
7e-06
1e-05
8e-06
SCALARS strain_1 float
LOOKUP_TABLE default
-0.000008
-0.000012
-0.000015
-0.000009
-0.000024
-0.000014
-0.000026
-0.000023
-0.000026
-0.000038
-0.000031
-0.000039
-0.000044
-0.000033
-0.000060
-0.000040
-0.000085
-0.000040
-0.000112
-0.000030
-0.000135
-0.000023
-0.000181
-0.000016
-0.000216
0.000011
-0.000269
0.000032
-0.000321
0.000063
-0.000382
0.000095
-0.000451
0.000135
-0.000536
0.000188
-0.000621
0.000247
-0.000705
0.000307
-0.000802
-0.000919
0.000378
-0.001017
0.000457
-0.001147
0.000547
-0.001276
0.000661
-0.001405
0.000760
-0.001551
0.000872
-0.001698
0.001011
-0.001859
0.001142
-0.002012
0.001284
-0.002193
0.001444
-0.002360
0.001606
0.001783
-0.002537
0.001952
-0.002717
0.002148
-0.002914
0.002352
-0.003100
0.002558
-0.003302
0.002769
-0.003501
0.002999
-0.003706
0.003221
-0.003913
0.003456
-0.004120
0.003702
-0.004337
0.003944
-0.004541
0.004192
-0.004756
0.004453
-0.004976
0.004693
-0.005185
0.004960
-0.005390
-0.005600
0.005209
-0.005809
0.005475
-0.006016
0.005731
-0.006215
0.005978
-0.006411
0.006239
-0.006604
0.006496
-0.006794
0.006741
-0.006984
0.006982
-0.007156
0.007225
-0.007326
0.007457
-0.007496
0.007681
0.007900
-0.007658
0.008108
-0.007798
0.008310
-0.007937
0.008498
-0.008075
0.008691
-0.008201
0.008861
-0.008315
0.009013
-0.008430
0.009169
-0.008523
0.009305
-0.008607
0.009432
-0.008683
0.009543
-0.008756
0.009643
-0.008814
0.009725
-0.008856
0.009799
-0.008893
0.009858
-0.008904
0.009894
-0.008922
-0.008929
0.009923
-0.008918
0.009945
-0.008903
0.009944
-0.008865
0.009929
-0.008824
0.009896
-0.008773
0.009867
-0.008709
0.009813
-0.008646
0.009739
-0.008566
0.009668
-0.008466
0.009574
0.009475
-0.008367
0.009364
-0.008257
0.009232
-0.008137
0.009103
-0.008026
0.008949
-0.007879
0.008798
-0.007746
0.008629
-0.007597
0.008453
-0.007443
0.008279
-0.007281
0.008096
-0.007125
0.007896
-0.006948
0.007706
-0.006768
0.007496
-0.006587
0.007290
-0.006403
0.007065
-0.006218
0.006850
-0.006035
-0.005838
0.006636
-0.005640
0.006414
-0.005450
0.006192
-0.005256
0.005963
-0.005053
0.005739
-0.004858
0.005516
-0.004652
0.005290
-0.004466
0.005063
-0.004265
0.004846
-0.004082
0.004627
-0.003887
0.004409
-0.003708
0.004199
-0.003517
0.003982
-0.003334
0.003767
-0.003158
0.003569
-0.002980
0.003373
-0.002816
0.003183
-0.002638
0.002989
-0.002477
0.002806
-0.002317
0.002633
-0.002176
0.002459
-0.002027
0.002299
-0.001875
0.002124
-0.001750
0.001974
-0.001615
0.001824
-0.001479
0.001688
-0.001362
0.001546
-0.001254
0.001420
-0.001147
0.001300
-0.001036
0.001188
-0.000940
0.001075
-0.000846
0.000967
-0.000755
0.000875
-0.000679
0.000783
-0.000604
0.000698
-0.000533
0.000612
-0.000469
0.000539
-0.000409
0.000474
-0.000352
0.000409
-0.000304
0.000359
-0.000262
0.000300
-0.000222
0.000255
-0.000187
0.000222
-0.000143
0.000175
-0.000126
0.000144
-0.000097
0.000117
-0.000081
0.000093
-0.000050
0.000062
-0.000054
0.000043
-0.000034
0.000031
-0.000032
0.000016
-0.000018
0.000017
-0.000006
-0.000001
-0.000010
-0.000004
-0.000014
0.000001
-0.000015
-0.000003
-0.000006
-0.000003
-0.000008
-0.000011
-0.000011
-0.000003
-0.000015
-0.000024
-0.000013
-0.000022
-0.000028
-0.000030
-0.000013
-0.000033
-0.000021
-0.000043
-0.000048
-0.000043
-0.000065
-0.000039
-0.000081
-0.000031
-0.000107
-0.000039
-0.000145
-0.000014
-0.000181
-0.000013
-0.000221
0.000007
-0.000271
0.000030
-0.000331
0.000058
-0.000395
0.000090
-0.000461
0.000133
-0.000532
0.000181
-0.000618
0.000246
-0.000717
0.000304
-0.000808
0.000380
-0.000912
0.000456
-0.001024
0.000542
-0.001148
0.000635
-0.001277
0.000747
-0.001407
0.000867
-0.001544
0.000983
-0.001703
0.001117
-0.001846
0.001255
-0.002003
0.001409
-0.002172
0.001565
-0.002338