# vtk DataFile Version 2.0
Generated volume Mesh
ASCII
DATASET UNSTRUCTURED_GRID
POINTS 205 float
30.000000 0.500000 0.000000
30.000000 -0.500000 0.000000
30.000000 -0.250000 0.000000
30.000000 -0.000000 0.000000
30.000000 0.250000 0.000000
0.000000 -0.500000 0.000000
0.000000 0.500000 0.000000
0.000000 0.250000 0.000000
0.000000 0.000000 0.000000
0.000000 -0.250000 0.000000
0.750000 -0.500000 0.000000
1.500000 -0.500000 0.000000
2.250000 -0.500000 0.000000
3.000000 -0.500000 0.000000
3.750000 -0.500000 0.000000
4.500000 -0.500000 0.000000
5.250000 -0.500000 0.000000
6.000000 -0.500000 0.000000
6.750000 -0.500000 0.000000
7.500000 -0.500000 0.000000
8.250000 -0.500000 0.000000
9.000000 -0.500000 0.000000
9.750000 -0.500000 0.000000
10.500000 -0.500000 0.000000
11.250000 -0.500000 0.000000
12.000000 -0.500000 0.000000
12.750000 -0.500000 0.000000
13.500000 -0.500000 0.000000
14.250000 -0.500000 0.000000
15.000000 -0.500000 0.000000
15.750000 -0.500000 0.000000
16.500000 -0.500000 0.000000
17.250000 -0.500000 0.000000
18.000000 -0.500000 0.000000
18.750000 -0.500000 0.000000
19.500000 -0.500000 0.000000
20.250000 -0.500000 0.000000
21.000000 -0.500000 0.000000
21.750000 -0.500000 0.000000
22.500000 -0.500000 0.000000
23.250000 -0.500000 0.000000
24.000000 -0.500000 0.000000
24.750000 -0.500000 0.000000
25.500000 -0.500000 0.000000
26.250000 -0.500000 0.000000
27.000000 -0.500000 0.000000
27.750000 -0.500000 0.000000
28.500000 -0.500000 0.000000
29.250000 -0.500000 0.000000
29.250000 0.500000 0.000000
28.500000 0.500000 0.000000
27.750000 0.500000 0.000000
27.000000 0.500000 0.000000
26.250000 0.500000 0.000000
25.500000 0.500000 0.000000
24.750000 0.500000 0.000000
24.000000 0.500000 0.000000
23.250000 0.500000 0.000000
22.500000 0.500000 0.000000
21.750000 0.500000 0.000000
21.000000 0.500000 0.000000
20.250000 0.500000 0.000000
19.500000 0.500000 0.000000
18.750000 0.500000 0.000000
18.000000 0.500000 0.000000
17.250000 0.500000 0.000000
16.500000 0.500000 0.000000
15.750000 0.500000 0.000000
15.000000 0.500000 0.000000
14.250000 0.500000 0.000000
13.500000 0.500000 0.000000
12.750000 0.500000 0.000000
12.000000 0.500000 0.000000
11.250000 0.500000 0.000000
10.500000 0.500000 0.000000
9.750000 0.500000 0.000000
9.000000 0.500000 0.000000
8.250000 0.500000 0.000000
7.500000 0.500000 0.000000
6.750000 0.500000 0.000000
6.000000 0.500000 0.000000
5.250000 0.500000 0.000000
4.500000 0.500000 0.000000
3.750000 0.500000 0.000000
3.000000 0.500000 0.000000
2.250000 0.500000 0.000000
1.500000 0.500000 0.000000
0.750000 0.500000 0.000000
0.750000 0.250000 0.000000
1.500000 0.250000 0.000000
2.250000 0.250000 0.000000
3.000000 0.250000 0.000000
3.750000 0.250000 0.000000
4.500000 0.250000 0.000000
5.250000 0.250000 0.000000
6.000000 0.250000 0.000000
6.750000 0.250000 0.000000
7.500000 0.250000 0.000000
8.250000 0.250000 0.000000
9.000000 0.250000 0.000000
9.750000 0.250000 0.000000
10.500000 0.250000 0.000000
11.250000 0.250000 0.000000
12.000000 0.250000 0.000000
12.750000 0.250000 0.000000
13.500000 0.250000 0.000000
14.250000 0.250000 0.000000
15.000000 0.250000 0.000000
15.750000 0.250000 0.000000
16.500000 0.250000 0.000000
17.250000 0.250000 0.000000
18.000000 0.250000 0.000000
18.750000 0.250000 0.000000
19.500000 0.250000 0.000000
20.250000 0.250000 0.000000
21.000000 0.250000 0.000000
21.750000 0.250000 0.000000
22.500000 0.250000 0.000000
23.250000 0.250000 0.000000
24.000000 0.250000 0.000000
24.750000 0.250000 0.000000
25.500000 0.250000 0.000000
26.250000 0.250000 0.000000
27.000000 0.250000 0.000000
27.750000 0.250000 0.000000
28.500000 0.250000 0.000000
29.250000 0.250000 0.000000
0.750000 0.000000 0.000000
1.500000 0.000000 0.000000
2.250000 0.000000 0.000000
3.000000 0.000000 0.000000
3.750000 0.000000 0.000000
4.500000 0.000000 0.000000
5.250000 0.000000 0.000000
6.000000 0.000000 0.000000
6.750000 0.000000 0.000000
7.500000 0.000000 0.000000
8.250000 0.000000 0.000000
9.000000 0.000000 0.000000
9.750000 0.000000 0.000000
10.500000 0.000000 0.000000
11.250000 0.000000 0.000000
12.000000 0.000000 0.000000
12.750000 0.000000 0.000000
13.500000 0.000000 0.000000
14.250000 0.000000 0.000000
15.000000 -0.000000 0.000000
15.750000 -0.000000 0.000000
16.500000 -0.000000 0.000000
17.250000 -0.000000 0.000000
18.000000 -0.000000 0.000000
18.750000 -0.000000 0.000000
19.500000 -0.000000 0.000000
20.250000 -0.000000 0.000000
21.000000 -0.000000 0.000000
21.750000 -0.000000 0.000000
22.500000 -0.000000 0.000000
23.250000 -0.000000 0.000000
24.000000 -0.000000 0.000000
24.750000 -0.000000 0.000000
25.500000 -0.000000 0.000000
26.250000 -0.000000 0.000000
27.000000 -0.000000 0.000000
27.750000 -0.000000 0.000000
28.500000 -0.000000 0.000000
29.250000 -0.000000 0.000000
0.750000 -0.250000 0.000000
1.500000 -0.250000 0.000000
2.250000 -0.250000 0.000000
3.000000 -0.250000 0.000000
3.750000 -0.250000 0.000000
4.500000 -0.250000 0.000000
5.250000 -0.250000 0.000000
6.000000 -0.250000 0.000000
6.750000 -0.250000 0.000000
7.500000 -0.250000 0.000000
8.250000 -0.250000 0.000000
9.000000 -0.250000 0.000000
9.750000 -0.250000 0.000000
10.500000 -0.250000 0.000000
11.250000 -0.250000 0.000000
12.000000 -0.250000 0.000000
12.750000 -0.250000 0.000000
13.500000 -0.250000 0.000000
14.250000 -0.250000 0.000000
15.000000 -0.250000 0.000000
15.750000 -0.250000 0.000000
16.500000 -0.250000 0.000000
17.250000 -0.250000 0.000000
18.000000 -0.250000 0.000000
18.750000 -0.250000 0.000000
19.500000 -0.250000 0.000000
20.250000 -0.250000 0.000000
21.000000 -0.250000 0.000000
21.750000 -0.250000 0.000000
22.500000 -0.250000 0.000000
23.250000 -0.250000 0.000000
24.000000 -0.250000 0.000000
24.750000 -0.250000 0.000000
25.500000 -0.250000 0.000000
26.250000 -0.250000 0.000000
27.000000 -0.250000 0.000000
27.750000 -0.250000 0.000000
28.500000 -0.250000 0.000000
29.250000 -0.250000 0.000000
CELLS 160 800
4 6 7 88 87
4 87 88 89 86
4 86 89 90 85
4 85 90 91 84
4 84 91 92 83
4 83 92 93 82
4 82 93 94 81
4 81 94 95 80
4 80 95 96 79
4 79 96 97 78
4 78 97 98 77
4 77 98 99 76
4 76 99 100 75
4 75 100 101 74
4 74 101 102 73
4 73 102 103 72
4 72 103 104 71
4 71 104 105 70
4 70 105 106 69
4 69 106 107 68
4 68 107 108 67
4 67 108 109 66
4 66 109 110 65
4 65 110 111 64
4 64 111 112 63
4 63 112 113 62
4 62 113 114 61
4 61 114 115 60
4 60 115 116 59
4 59 116 117 58
4 58 117 118 57
4 57 118 119 56
4 56 119 120 55
4 55 120 121 54
4 54 121 122 53
4 53 122 123 52
4 52 123 124 51
4 51 124 125 50
4 50 125 126 49
4 49 126 4 0
4 7 8 127 88
4 88 127 128 89
4 89 128 129 90
4 90 129 130 91
4 91 130 131 92
4 92 131 132 93
4 93 132 133 94
4 94 133 134 95
4 95 134 135 96
4 96 135 136 97
4 97 136 137 98
4 98 137 138 99
4 99 138 139 100
4 100 139 140 101
4 101 140 141 102
4 102 141 142 103
4 103 142 143 104
4 104 143 144 105
4 105 144 145 106
4 106 145 146 107
4 107 146 147 108
4 108 147 148 109
4 109 148 149 110
4 110 149 150 111
4 111 150 151 112
4 112 151 152 113
4 113 152 153 114
4 114 153 154 115
4 115 154 155 116
4 116 155 156 117
4 117 156 157 118
4 118 157 158 119
4 119 158 159 120
4 120 159 160 121
4 121 160 161 122
4 122 161 162 123
4 123 162 163 124
4 124 163 164 125
4 125 164 165 126
4 126 165 3 4
4 8 9 166 127
4 127 166 167 128
4 128 167 168 129
4 129 168 169 130
4 130 169 170 131
4 131 170 171 132
4 132 171 172 133
4 133 172 173 134
4 134 173 174 135
4 135 174 175 136
4 136 175 176 137
4 137 176 177 138
4 138 177 178 139
4 139 178 179 140
4 140 179 180 141
4 141 180 181 142
4 142 181 182 143
4 143 182 183 144
4 144 183 184 145
4 145 184 185 146
4 146 185 186 147
4 147 186 187 148
4 148 187 188 149
4 149 188 189 150
4 150 189 190 151
4 151 190 191 152
4 152 191 192 153
4 153 192 193 154
4 154 193 194 155
4 155 194 195 156
4 156 195 196 157
4 157 196 197 158
4 158 197 198 159
4 159 198 199 160
4 160 199 200 161
4 161 200 201 162
4 162 201 202 163
4 163 202 203 164
4 164 203 204 165
4 165 204 2 3
4 9 5 10 166
4 166 10 11 167
4 167 11 12 168
4 168 12 13 169
4 169 13 14 170
4 170 14 15 171
4 171 15 16 172
4 172 16 17 173
4 173 17 18 174
4 174 18 19 175
4 175 19 20 176
4 176 20 21 177
4 177 21 22 178
4 178 22 23 179
4 179 23 24 180
4 180 24 25 181
4 181 25 26 182
4 182 26 27 183
4 183 27 28 184
4 184 28 29 185
4 185 29 30 186
4 186 30 31 187
4 187 31 32 188
4 188 32 33 189
4 189 33 34 190
4 190 34 35 191
4 191 35 36 192
4 192 36 37 193
4 193 37 38 194
4 194 38 39 195
4 195 39 40 196
4 196 40 41 197
4 197 41 42 198
4 198 42 43 199
4 199 43 44 200
4 200 44 45 201
4 201 45 46 202
4 202 46 47 203
4 203 47 48 204
4 204 48 1 2
CELL_TYPES 160
9
9
9
9
9
9
9
9
9
9
9
9
9
9
9
9
9
9
9
9
9
9
9
9
9
9
9
9
9
9
9
9
9
9
9
9
9
9
9
9
9
9
9
9
9
9
9
9
9
9
9
9
9
9
9
9
9
9
9
9
9
9
9
9
9
9
9
9
9
9
9
9
9
9
9
9
9
9
9
9
9
9
9
9
9
9
9
9
9
9
9
9
9
9
9
9
9
9
9
9
9
9
9
9
9
9
9
9
9
9
9
9
9
9
9
9
9
9
9
9
9
9
9
9
9
9
9
9
9
9
9
9
9
9
9
9
9
9
9
9
9
9
9
9
9
9
9
9
9
9
9
9
9
9
9
9
9
9
9
9
POINT_DATA 205
SCALARS u1 float
LOOKUP_TABLE default
0.000000
0.000000
0.000000
0.000000
0.000000
2.439254
-2.439254
-1.218953
-0.000000
1.218953
2.427852
2.374703
2.249448
2.036811
1.733323
1.347132
0.895962
0.405080
-0.095262
-0.572557
-0.994847
-1.333391
-1.565023
-1.674055
-1.653564
-1.506005
-1.243097
-0.884993
-0.458810
0.003378
0.466927
0.897208
1.262209
1.534939
1.695471
1.732476
1.644112
1.438237
1.131911
0.750244
0.324665
-0.109168
-0.513911
-0.852487
-1.091771
-1.200571
-1.161131
-0.945790
-0.565352
0.565352
0.945790
1.161131
1.200571
1.091771
0.852487
0.513911
0.109168
-0.324665
-0.750244
-1.131911
-1.438237
-1.644112
-1.732476
-1.695471
-1.534939
-1.262209
-0.897208
-0.466927
-0.003378
0.458810
0.884993
1.243097
1.506005
1.653564
1.674055
1.565023
1.333391
0.994847
0.572557
0.095262
-0.405080
-0.895962
-1.347132
-1.733323
-2.036811
-2.249448
-2.374703
-2.427852
-1.211419
-1.182645
-1.119137
-1.012567
-0.861357
-0.669396
-0.445432
-0.201930
0.046157
0.282756
0.492059
0.659846
0.774657
0.828729
0.818641
0.745612
0.615449
0.438135
0.227098
-0.001776
-0.231332
-0.444421
-0.625192
-0.760280
-0.839820
-0.858204
-0.814526
-0.712681
-0.561127
-0.372306
-0.161804
0.052733
0.252687
0.419989
0.537235
0.591615
0.567190
0.467400
0.260097
-0.000000
-0.000000
-0.000000
-0.000000
-0.000000
-0.000000
-0.000000
-0.000000
-0.000000
-0.000000
-0.000000
-0.000000
-0.000000
-0.000000
-0.000000
-0.000000
-0.000000
-0.000000
-0.000000
-0.000000
-0.000000
-0.000000
-0.000000
-0.000000
-0.000000
-0.000000
-0.000000
-0.000000
-0.000000
-0.000000
-0.000000
-0.000000
-0.000000
-0.000000
-0.000000
-0.000000
-0.000000
-0.000000
-0.000000
1.211419
1.182645
1.119137
1.012567
0.861357
0.669396
0.445432
0.201930
-0.046157
-0.282756
-0.492059
-0.659846
-0.774657
-0.828729
-0.818641
-0.745612
-0.615449
-0.438135
-0.227098
0.001776
0.231332
0.444421
0.625192
0.760280
0.839820
0.858204
0.814526
0.712681
0.561127
0.372306
0.161804
-0.052733
-0.252687
-0.419989
-0.537235
-0.591615
-0.567190
-0.467400
-0.260097
SCALARS u2 float
LOOKUP_TABLE default
0.000000
0.000000
0.000000
0.000000
0.000000
-13.339163
-13.339163
-13.338546
-13.338117
-13.338546
-9.677164
-6.045354
-2.535705
0.725360
3.598063
5.946774
7.656299
8.644882
8.873774
8.352725
7.141254
5.345703
3.112449
0.617835
-1.944345
-4.376818
-6.493184
-8.131545
-9.166357
-9.517607
-9.156608
-8.107971
-6.447585
-4.296746
-1.812861
0.822592
3.417968
5.786215
7.759391
9.201930
10.021664
10.177932
9.686023
8.618394
7.100926
5.309178
3.455327
1.783662
0.569179
0.569179
1.783662
3.455327
5.309178
7.100926
8.618394
9.686023
10.177932
10.021664
9.201930
7.759391
5.786215
3.417968
0.822592
-1.812861
-4.296746
-6.447585
-8.107971
-9.156608
-9.517607
-9.166357
-8.131545
-6.493184
-4.376818
-1.944345
0.617835
3.112449
5.345703
7.141254
8.352725
8.873774
8.644882
7.656299
5.946774
3.598063
0.725360
-2.535705
-6.045354
-9.677164
-9.675011
-6.038761
-2.523099
0.744734
3.623999
5.978299
7.691785
8.682233
8.910620
8.386634
7.169934
5.367196
3.125289
0.621168
-1.950688
-4.392301
-6.516607
-8.161125
-9.199862
-9.552520
-9.190317
-8.137963
-6.471634
-4.313083
-1.820306
0.824535
3.429074
5.805543
7.785352
9.232393
10.054103
10.209586
9.714113
8.640212
7.114185
5.311851
3.445502
1.763901
0.521224
-9.674146
-6.036431
-2.518861
0.751184
3.632577
5.988700
7.703474
8.694526
8.922740
8.397785
7.179364
5.374263
3.129512
0.622267
-1.952767
-4.397383
-6.524296
-8.170837
-9.210864
-9.563985
-9.201387
-8.147813
-6.479533
-4.318450
-1.822755
0.825168
3.432713
5.811880
7.793865
9.242378
10.064736
10.219942
9.723325
8.647262
7.118627
5.312314
3.442803
1.756261
0.506314
-9.675011
-6.038761
-2.523099
0.744734
3.623999
5.978299
7.691785
8.682233
8.910620
8.386634
7.169934
5.367196
3.125289
0.621168
-1.950688
-4.392301
-6.516607
-8.161125
-9.199862
-9.552520
-9.190317
-8.137963
-6.471634
-4.313083
-1.820306
0.824535
3.429074
5.805543
7.785352
9.232393
10.054103
10.209586
9.714113
8.640212
7.114185
5.311851
3.445502
1.763901
0.521224
